 128  128
1 1
    37.491292792549494     9.586297905606523    -0.000000000000000
     9.582016228010865    42.060631527062696     0.000000000000000
     0.000000000000032     0.000000000000025    10.763868815649957
1 2
    -0.423872115553332    -0.014763966330063    -0.000000000000000
     0.164033835912954     0.002107035874588     0.000000000000000
    -0.000000000000000    -0.000000000000000     0.015273574958553
1 3
    -0.343548248206545    -0.009419938260566    -0.000000000000000
    -0.021387540202653    -0.347699192594813    -0.000000000000000
    -0.000000000000000    -0.000000000000000    -0.011512411340912
1 4
    -0.423934112427388     0.171219482647354    -0.000000000000000
    -0.021704283814482     0.002528537162024     0.000000000000000
    -0.000000000000000     0.000000000000000     0.015266707343914
1 5
    -0.186919038167724     0.179076177414148    -0.000000000000000
     0.289079293715599     0.227428523318057     0.000000000000000
    -0.000000000000000     0.000000000000000     0.009456705358780
1 6
    -0.206376833945981    -0.141409746014244    -0.000000000000000
     0.212203327371132    -0.138199821767796    -0.000000000000000
    -0.000000000000000    -0.000000000000000    -0.011375059048119
1 7
    -0.183945750067312     0.120084870822253    -0.000000000000000
     0.030693931255873     0.136128433683579     0.000000000000000
    -0.000000000000000     0.000000000000000     0.007616184635358
1 8
    -0.207543502394135     0.279265687743729    -0.000000000000000
     0.007444402930736     0.113472597439178     0.000000000000000
    -0.000000000000000     0.000000000000000     0.005063721194293
1 9
    -0.281815245142945     0.123827227583480    -0.000000000000000
     0.117876325891079     0.083485697384795     0.000000000000000
    -0.000000000000000     0.000000000000000     0.005317822935959
1 10
    -0.350128114790292    -0.097972481618486    -0.000000000000000
    -0.009811677252171    -0.321970523662108     0.000000000000000
    -0.000000000000000    -0.000000000000000     0.012492191029500
1 11
    -0.230816411595735     0.069998569776652    -0.000000000000000
     0.063078058582431     0.048664400738212     0.000000000000000
    -0.000000000000000     0.000000000000000     0.016956140545264
1 12
    -0.350234687929166     0.001095448898618    -0.000000000000000
    -0.108714561854256    -0.321446834246048     0.000000000000000
    -0.000000000000000    -0.000000000000000     0.012496769439260
1 13
    -0.187884344867909     0.262261636013873    -0.000000000000000
     0.207653328444384     0.231864186890065     0.000000000000000
    -0.000000000000000     0.000000000000000     0.009449837744141
1 14
    -0.208493950339381    -0.019998347035526    -0.000000000000000
     0.305728173133709     0.111286462193332     0.000000000000000
    -0.000000000000000     0.000000000000000     0.005066010399172
1 15
    -0.184755296026067     0.005129857050029    -0.000000000000000
     0.147932271301310     0.141021740061649     0.000000000000000
    -0.000000000000000     0.000000000000000     0.007602449406078
1 16
    -0.207484067374378     0.184739924900267    -0.000000000000000
    -0.114534548377057    -0.139333276570069    -0.000000000000000
    -0.000000000000000    -0.000000000000000    -0.011397951096918
1 17
     0.794686691444091     0.925854143967516    -0.000000000000000
    -1.094944900667913    -0.925023134477216     0.000000000000000
    -0.000000000000000     0.000000000000001     0.479771558725056
1 18
    -0.287721856416690     0.062946809630872    -0.000000000000000
    -0.250978200715376     0.073724962958563    -0.000000000000000
    -0.000000000000001     0.000000000000002    -0.007073643078826
1 19
    -0.030913383465488     0.108697428459398    -0.000000000000000
    -0.073841409767853     0.086574343338424    -0.000000000000000
    -0.000000000000000     0.000000000000002    -0.015156825509679
1 20
    -0.006656722212743     0.033526474851340    -0.000000000000000
     0.117668303165836    -0.062996027833351    -0.000000000000000
    -0.000000000000000     0.000000000000002    -0.216771677690389
1 21
    -0.007754220594800    -0.059975571013901    -0.000000000000000
     0.010092168990484    -0.091175583352214     0.000000000000000
    -0.000000000000000    -0.000000000000000     0.012666170600371
1 22
     0.016663325107976    -0.032342385793946    -0.000000000000000
     0.096842222636685    -0.024445339082996     0.000000000000000
    -0.000000000000000     0.000000000000002     0.007620763045117
1 23
     0.013858094649635     0.003992906111754    -0.000000000000000
    -0.007763965809912     0.001185321169467     0.000000000000000
    -0.000000000000000     0.000000000000002     0.005603973545944
1 24
     0.141037252399045    -0.071612025614701    -0.000000000000000
     0.060106743715429     0.011302174824373     0.000000000000000
    -0.000000000000000     0.000000000000000     0.003117897046395
1 25
     0.048625531723824     0.004104090588367    -0.000000000000000
     0.058840974447383    -0.073767233093510    -0.000000000000000
     0.000000000000000    -0.000000000000000    -0.002964520319443
1 26
    -0.113590570172121     0.108016487586497    -0.000000000000000
    -0.119580441343029     0.143347284891435     0.000000000000000
    -0.000000000000000     0.000000000000002     0.006631826537010
1 27
    -0.001360857004083     0.038311506312608    -0.000000000000000
     0.084692775380954    -0.082281238636291     0.000000000000000
    -0.000000000000000     0.000000000000002     0.003062956129278
1 28
    -0.016117650142106     0.085897949932410    -0.000000000000000
    -0.182504229366317     0.112219213108796     0.000000000000000
    -0.000000000000000     0.000000000000002     0.013027864971392
1 29
     0.299574019149538     0.049900822794291    -0.000000000000000
     0.794263116645502    -0.071507860475831    -0.000000000000000
     0.000000000000000     0.000000000000002    -0.162359566900543
1 30
    -0.158103813373817    -0.032343922906526    -0.000000000000000
     0.061635146705027    -0.051734209692540    -0.000000000000000
    -0.000000000000000     0.000000000000002    -0.013485705947368
1 31
     0.004914148917981    -0.019152935116574    -0.000000000000000
     0.132192747546349    -0.074874725087834    -0.000000000000000
    -0.000000000000000     0.000000000000002    -0.018045802068087
1 32
    -0.658653765234382    -0.851809381509672    -0.000000000000000
    -0.346201111228273    -0.517929307878667     0.000000000000000
    -0.000000000000001    -0.000000000000000     0.628917835058937
1 33
   -18.596098663891585     1.468661882504185    -0.000000000000000
     0.600929710006706    -3.093367609771728    -0.000000000000000
    -0.000000000000010     0.000000000000002    -5.206860597021588
1 34
     0.033641758294833     0.717982211852139    -0.000000000000000
     0.006050492864036    -0.198011996592760    -0.000000000000000
     0.000000000000002     0.000000000000003    -0.470021835141651
1 35
     0.093448759295803     0.595904218384600    -0.000000000000000
    -0.178619366447359    -0.183199216516243     0.000000000000000
     0.000000000000002     0.000000000000003     0.002046549162612
1 36
     0.193650566526022     0.789488689069686    -0.000000000000000
     0.060208368030206    -0.129359134748990     0.000000000000000
     0.000000000000002     0.000000000000003     0.030247264077842
1 37
     0.044154583599718     0.652090806889014    -0.000000000000000
    -0.011524668831702     0.093337109265953    -0.000000000000000
     0.000000000000002     0.000000000000003    -0.000471576205255
1 38
     0.069171603208659     0.485587698007693    -0.000000000000000
    -0.210778001714718    -0.267447711613366    -0.000000000000000
     0.000000000000002     0.000000000000003    -0.075381227489538
1 39
     0.065420023771950     0.471787501265236    -0.000000000000000
     0.095859883771960     0.037777890157635     0.000000000000000
     0.000000000000002    -0.000000000000000     0.035104956832946
1 40
     0.122311634579686     0.566898904001643    -0.000000000000000
     0.034584880888479    -0.022996223296257    -0.000000000000000
     0.000000000000002     0.000000000000003    -0.014403677104199
1 41
     0.107004555138055     0.747718679452273    -0.000000000000000
     0.037037000186561    -0.164895115135501    -0.000000000000000
     0.000000000000002     0.000000000000003    -0.002909579402326
1 42
     0.014881299256997     0.650049521382888    -0.000000000000000
    -0.129728281243877    -0.268916774789988    -0.000000000000000
     0.000000000000002     0.000000000000007    -0.010360941286333
1 43
     0.126594030227323     0.494825744612969    -0.000000000000000
     0.096720745118159    -0.286906690189689    -0.000000000000000
     0.000000000000002     0.000000000000003    -0.006130490668316
1 44
     0.081011469040868     0.620966326629217    -0.000000000000000
    -0.094562569271466    -0.107205871001748    -0.000000000000000
     0.000000000000002    -0.000000000000000    -0.000840138190916
1 45
     0.027644457378873     0.779382686227619    -0.000000000000000
     0.024202902225653    -0.254345784435595    -0.000000000000000
     0.000000000000002     0.000000000000003    -0.079298057039011
1 46
    -0.006993862238604     0.550855547634233    -0.000000000000000
    -0.046814640741838    -0.275327994881602     0.000000000000000
     0.000000000000002    -0.000000000000000     0.009239230895192
1 47
    -0.004893141712722     0.401023961794646    -0.000000000000000
    -0.030316568424959    -0.174507885617242    -0.000000000000000
     0.000000000000004     0.000000000000003    -0.007371239713211
1 48
     0.083558464585784     0.480818550043082    -0.000000000000000
     0.063220118644447     0.005914842597143     0.000000000000000
     0.000000000000002     0.000000000000003     0.009868762237159
1 49
     0.029934755122941    -0.218322248175344    -0.000000000000000
     0.977903663428558    -0.829898431666608    -0.000000000000000
     0.000000000000001    -0.000000000000000    -0.228224569704424
1 50
    -0.129553484314517     0.477693600168120    -0.000000000000000
     0.498440910878298     0.961067703040930     0.000000000000000
     0.000000000000004     0.000000000000000     0.714582170868892
1 51
     0.039290647026014    -0.182927669168549    -0.000000000000000
     0.163478717890804    -0.394578564927041    -0.000000000000000
     0.000000000000004    -0.000000000000000    -0.001993897450375
1 52
     0.002728374829346    -0.041619884955439    -0.000000000000000
    -0.053729260644962     0.087857558254179     0.000000000000000
     0.000000000000004     0.000000000000000     0.004083941505704
1 53
     0.045857704338260    -0.116659671623346    -0.000000000000000
     0.070479871101995    -0.107753908634965    -0.000000000000000
     0.000000000000004    -0.000000000000004    -0.003346817534383
1 54
    -0.069646570995852     0.149135786211746    -0.000000000000000
    -0.212342286111252     0.335995746541364    -0.000000000000000
     0.000000000000003    -0.000000000000003    -0.009900811105477
1 55
     0.057028926198209    -0.062246911036151    -0.000000000000000
     0.022216245805302     0.027521903642194    -0.000000000000000
     0.000000000000004    -0.000000000000004    -0.007771850567189
1 56
    -0.199987056951283     0.240610892954940    -0.000000000000000
    -0.218161581845193     0.349233354089577     0.000000000000000
     0.000000000000003    -0.000000000000003     0.003481880622296
1 57
    -0.100233574223537     0.032428464098421    -0.000000000000000
    -0.084437132158776     0.172278329497656    -0.000000000000000
     0.000000000000004     0.000000000000000    -0.001300268371771
1 58
     0.102577158537045    -0.184292112768652    -0.000000000000000
     0.199940528068346    -0.393906414918556    -0.000000000000000
     0.000000000000000    -0.000000000000000    -0.002138117357807
1 59
     0.000206997827430    -0.019668380201704    -0.000000000000000
    -0.085903750255147     0.106415820585287    -0.000000000000000
     0.000000000000004    -0.000000000000003    -0.000920260361711
1 60
    -0.015051406382508    -0.004035432893131    -0.000000000000000
     0.218027000371794    -0.322499951820953     0.000000000000000
     0.000000000000004    -0.000000000000004     0.001781001396546
1 61
    -0.342598312632159     1.682989687455196    -0.000000000000000
    -0.475232917132550     0.178895457318115     0.000000000000000
    -0.000000000000000    -0.000000000000000     0.608646925847608
1 62
     0.265177538577968    -0.393504407053713    -0.000000000000000
    -0.037812005592887    -0.310648525567041    -0.000000000000000
     0.000000000000007    -0.000000000000004    -0.040958453710796
1 63
    -0.043900960024031     0.194230570339510    -0.000000000000000
    -0.221736538652861     0.382514420576124     0.000000000000000
     0.000000000000003    -0.000000000000003     0.000702785898123
1 64
     0.242330409561003     0.026250296268890    -0.000000000000000
     0.086860524299990    -0.020259736692124    -0.000000000000000
     0.000000000000004    -0.000000000000000    -0.107732270851989
1 65
    -1.947392521292887    -2.664533932563813    -0.000000000000000
    -1.475223375519246     0.230917832657233     0.000000000000000
    -0.000000000000002    -0.000000000000001     0.167814742129295
1 66
     0.438530533486240    -0.233496623564243    -0.000000000000000
     0.187984572409604    -0.094244226329666     0.000000000000000
     0.000000000000002    -0.000000000000000     0.027257562504720
1 67
     0.427585779546401    -0.285620623519949    -0.000000000000000
    -0.080141216716062     0.083365077142744     0.000000000000000
     0.000000000000002     0.000000000000000     0.020813450767861
1 68
    -0.325038850890094     0.146302887726966    -0.000000000000000
     1.850781092528296    -0.239390010883652     0.000000000000000
     0.000000000000003     0.000000000000000     1.193181656695450
1 69
     0.244167259093999    -0.335589079267756    -0.000000000000000
    -0.130755027615489     0.047788272119767    -0.000000000000000
     0.000000000000002    -0.000000000000000    -0.033573478768306
1 70
     0.167189173462823    -0.250112810553102    -0.000000000000000
    -0.114408392318820     0.044885615306498    -0.000000000000000
     0.000000000000002     0.000000000000000    -0.014893566948493
1 71
     0.232786477552324    -0.263884826898261    -0.000000000000000
    -0.106995082212648     0.065760164904318     0.000000000000000
     0.000000000000002    -0.000000000000000     0.004010686949548
1 72
     0.370592719308392    -0.337896797621065    -0.000000000000000
    -0.080892982169739     0.153033985608027    -0.000000000000000
     0.000000000000002     0.000000000000000    -0.011546749414110
1 73
     0.477024443824997    -0.328800165373141    -0.000000000000000
     0.067828613916390     0.047901697176198    -0.000000000000000
     0.000000000000002    -0.000000000000000    -0.011542171004350
1 74
     0.257027767679270    -0.153667194097329    -0.000000000000000
    -0.172593628106042     0.217321426432705    -0.000000000000000
     0.000000000000002     0.000000000000000    -0.020264041596690
1 75
     0.375419765180178    -0.333705091615643    -0.000000000000000
     0.107396583515128    -0.074467454108907    -0.000000000000000
     0.000000000000004     0.000000000000000    -0.017024816691661
1 76
     0.419628660091052    -0.304531719590617    -0.000000000000000
    -0.159768382734334     0.120115396838281    -0.000000000000000
     0.000000000000002     0.000000000000000    -0.006792070878601
1 77
     0.409899762201923    -0.256912484235776    -0.000000000000000
     0.007453734634153     0.437269914703011    -0.000000000000000
     0.000000000000002     0.000000000000000    -0.010347206057053
1 78
     0.127042354729799    -0.338199096428448    -0.000000000000000
    -0.202475072048415     0.104576712869492     0.000000000000000
    -0.000000000000000    -0.000000000000000     0.008737895026498
1 79
     0.118235724388617    -0.462301467163733    -0.000000000000000
    -0.119553949539251     0.057009424416643    -0.000000000000000
    -0.000000000000000    -0.000000000000000    -0.024432683682949
1 80
     0.319084076755512    -0.359974345606354    -0.000000000000000
    -0.042117982109604     0.132200896723218     0.000000000000000
     0.000000000000002     0.000000000000000     0.576877340524646
1 81
   -10.518798524369590    -7.494564364609507    -0.000000000000000
    -5.773004153734764   -17.097386202956653    -0.000000000000000
    -0.000000000000011    -0.000000000000014    -5.087487719355413
1 82
    -0.055235628188308     0.092552622661713    -0.000000000000000
    -0.226334467947835     0.017239731326265     0.000000000000000
    -0.000000000000007    -0.000000000000000     0.017855798063057
1 83
    -0.032763554640843     0.082303155978855    -0.000000000000000
     0.185873647497349    -0.015791045331136    -0.000000000000000
    -0.000000000000007    -0.000000000000000    -0.005512405350749
1 84
     0.065230446553763     0.132245993183663    -0.000000000000000
    -0.084101319862052    -0.125966344945043     0.000000000000000
    -0.000000000000004    -0.000000000000000     0.229762915383703
1 85
    -0.061939488520167     0.029120597826449    -0.000000000000000
    -0.081586994056487    -0.148640302784685     0.000000000000000
    -0.000000000000004    -0.000000000000001     0.017297232072366
1 86
    -0.013300635153985     0.135769567587684    -0.000000000000000
    -0.026853217144732    -0.013610650328596     0.000000000000000
    -0.000000000000004    -0.000000000000001     0.032737918987151
1 87
    -0.035150178106585     0.033729373711888    -0.000000000000000
     0.062024011891946    -0.078705603746350    -0.000000000000000
    -0.000000000000004    -0.000000000000000    -0.012304476229350
1 88
    -0.233690812120173     0.105497160068020    -0.000000000000000
    -0.044838446494921    -0.039883229996196     0.000000000000000
    -0.000000000000007    -0.000000000000000     0.007172078888661
1 89
    -0.188027808708702     0.122057498633140    -0.000000000000000
    -0.199455280642860     0.057668546068443     0.000000000000000
    -0.000000000000007    -0.000000000000001     0.008861512090012
1 90
     0.069537436002678     0.070725111656091    -0.000000000000000
     0.258819422592275    -0.055798700727721     0.000000000000000
    -0.000000000000003    -0.000000000000000     0.006718816322445
1 91
    -0.099483975655401     0.092594637072231    -0.000000000000000
    -0.162934320645272     0.123824185499247     0.000000000000000
    -0.000000000000007     0.000000000000000     0.005947354277926
1 92
    -0.052815700616668     0.069201320718537    -0.000000000000000
     0.262003879675030    -0.067668882245018    -0.000000000000000
     0.000000000000000    -0.000000000000000    -0.003621522119969
1 93
    -0.252962617276260     0.107559965150263    -0.000000000000000
    -0.395065811974769     0.110938467525806     0.000000000000000
    -0.000000000000004    -0.000000000000001     0.050561668181889
1 94
     0.088355280576829     0.041162337777487    -0.000000000000000
     0.015145132227094    -0.128287821052339    -0.000000000000000
    -0.000000000000000    -0.000000000000002    -0.006016030424322
1 95
     0.051949793863313     0.130599745610577    -0.000000000000000
    -0.082110641000858     0.012906840380897     0.000000000000000
    -0.000000000000004    -0.000000000000001     0.012533396717338
1 96
    -0.318607059484879     0.234338448887176    -0.000000000000000
     0.171328551255613     0.383412679700234    -0.000000000000000
    -0.000000000000003     0.000000000000000    -0.153852881566913
1 97
     0.004727645924950    -0.001723615572942    -0.000000000000000
    -0.016348991470169    -0.127706851201744     0.000000000000000
    -0.000000000000007    -0.000000000000000     0.210313830724250
1 98
     0.228956505374040    -0.258005371280095    -0.000000000000000
     0.014527634871973    -0.090760604172811    -0.000000000000000
    -0.000000000000000     0.000000000000000    -0.115309539004389
1 99
     0.377626034103212    -0.395715287314488    -0.000000000000000
     0.113454445992135     0.050757886033647    -0.000000000000000
    -0.000000000000007    -0.000000000000007    -0.014298373679725
1 100
     0.330663145819996    -0.353850489087982    -0.000000000000000
     0.028523490000477    -0.336904909419410     0.000000000000000
    -0.000000000000004    -0.000000000000007     0.027953480788203
1 101
     0.270289462647899    -0.252534275237324    -0.000000000000000
    -0.250108632668779     0.410638211736497     0.000000000000000
    -0.000000000000004    -0.000000000000007     0.003983216490990
1 102
     0.226481754120382    -0.406799406128240    -0.000000000000000
    -0.113679482822921    -0.023614679388871     0.000000000000000
    -0.000000000000004    -0.000000000000007     0.001886304821020
1 103
     0.270722928395434    -0.292927031983137    -0.000000000000000
    -0.165210485703332     0.297173522482286    -0.000000000000000
    -0.000000000000004     0.000000000000000    -0.003703933495644
1 104
     0.311028069724189    -0.594365056321244    -0.000000000000000
    -0.097102719758251    -0.178982400339756     0.000000000000000
    -0.000000000000007    -0.000000000000007     0.002852349280329
1 105
     0.214739238751568    -0.274614897447773    -0.000000000000000
    -0.167348787509106     0.093816157844110    -0.000000000000000
    -0.000000000000007    -0.000000000000007    -0.006638694151649
1 106
     0.227550559734281    -0.206630969892529    -0.000000000000000
     0.045561566000996     0.172206822002106     0.000000000000000
    -0.000000000000004    -0.000000000000007     0.008495239309231
1 107
     0.257644149823815    -0.256584566885398    -0.000000000000000
    -0.030988380585963    -0.066912518609300     0.000000000000000
    -0.000000000000004    -0.000000000000007     0.006414352073421
1 108
     0.334656564302607    -0.420910611982699    -0.000000000000000
     0.026480072634246     0.257066672057579    -0.000000000000000
    -0.000000000000000    -0.000000000000007    -0.025659697498565
1 109
     0.416327454640260    -0.768628021876825    -0.000000000000000
    -0.382357003075999    -0.440840734020419     0.000000000000000
    -0.000000000000000    -0.000000000000000     0.141786482645070
1 110
     0.292634468222092    -0.267487306414719    -0.000000000000000
    -0.221620351033367     0.355117312687931     0.000000000000000
    -0.000000000000007    -0.000000000000007     0.002186190660285
1 111
     0.481594279525080    -0.524363412319435    -0.000000000000000
    -0.088149917639999    -0.128444444337301     0.000000000000000
    -0.000000000000004    -0.000000000000007     0.006927133966514
1 112
    -2.854974495652116    -2.893755846043318    -0.000000000000000
    -3.549625936530067    -2.105989733534255     0.000000000000000
    -0.000000000000005    -0.000000000000000     1.334817051818448
1 113
    -0.570481913425420     0.010142381173125    -0.000000000000000
    -0.612563857949098     0.785183807046889    -0.000000000000000
    -0.000000000000001     0.000000000000000    -0.018741720351570
1 114
    -0.085778055151178     0.178167743879420    -0.000000000000000
     0.521008837196114     0.035010926389045    -0.000000000000000
    -0.000000000000000     0.000000000000007    -0.050025994239997
1 115
    -0.415988777501818     0.002139660711240    -0.000000000000000
    -0.306052707865393     0.290894181387138     0.000000000000000
    -0.000000000000001     0.000000000000000     0.040525793988499
1 116
    -0.480427098706066    -0.164950112804750    -0.000000000000000
    -0.055763918845569    -0.118650594564103     0.000000000000000
    -0.000000000000000    -0.000000000000000     0.038612018708920
1 117
    -0.451248602972440    -0.038857693649335    -0.000000000000000
     0.018237036386443     0.073320887430562    -0.000000000000000
    -0.000000000000000     0.000000000000000    -0.006915687942115
1 118
    -0.178058096515386    -0.163467823906855    -0.000000000000000
     0.559255815819833    -0.209503863091454    -0.000000000000000
     0.000000000000000     0.000000000000007    -0.001856545157582
1 119
    -0.315486208576796    -0.020243772677453    -0.000000000000000
     0.129250382704514    -0.009235068839713    -0.000000000000000
    -0.000000000000000     0.000000000000007    -0.006830987361559
1 120
    -0.160248597793656    -0.331412744388132    -0.000000000000000
     0.466008742564364    -0.236261216628854    -0.000000000000000
    -0.000000000000000    -0.000000000000000    -0.006654718585808
1 121
    -0.401235570959815    -0.202505872098898    -0.000000000000000
     0.049758932403588    -0.118970741497137     0.000000000000000
    -0.000000000000000     0.000000000000007     0.007265936288736
1 122
    -0.347098978266144     0.093273528461696    -0.000000000000000
    -0.077146704692117     0.369948942405127    -0.000000000000000
    -0.000000000000000     0.000000000000000    -0.001016406966666
1 123
    -0.264295235957098    -0.052762926418088    -0.000000000000000
     0.002198005199006    -0.090935213471335    -0.000000000000000
    -0.000000000000000     0.000000000000007    -0.007645944298796
1 124
    -0.325839174173369    -0.098166670174416    -0.000000000000000
    -0.159442242460653     0.281535102113104    -0.000000000000000
    -0.000000000000000    -0.000000000000007    -0.009062962119441
1 125
    -2.327287845934911    -1.263528572635351    -0.000000000000000
    -1.169075939843685   -18.698842516998969    -0.000000000000000
    -0.000000000000002    -0.000000000000003    -5.313015605711340
1 126
    -0.719090982393116     0.185635036792638    -0.000000000000000
     0.087437943722538     0.107034295168818     0.000000000000000
    -0.000000000000000     0.000000000000007     0.051644462090072
1 127
    -0.186478399228149    -0.207050089255981    -0.000000000000000
     0.556219256266434    -0.215374801141035     0.000000000000000
     0.000000000000000    -0.000000000000000     0.004823354681905
1 128
    -0.576394160778625    -0.087036950354126    -0.000000000000000
     0.072665182574210     0.074564084890607     0.000000000000000
    -0.000000000000001     0.000000000000007     0.010308289574095
2 1
    -0.423934112427388     0.171219482647354     0.000000000000000
    -0.021704283814482     0.002528537162024     0.000000000000000
    -0.000000000000000     0.000000000000000     0.015266707343914
2 2
    37.491292792549494     9.586297905606523     0.000000000000000
     9.582016228010865    42.060631527062696     0.000000000000000
     0.000000000000032     0.000000000000025    10.763868815649957
2 3
    -0.423872115553332    -0.014763966330063     0.000000000000000
     0.164033835912954     0.002107035874588     0.000000000000000
    -0.000000000000000    -0.000000000000000     0.015273574958553
2 4
    -0.343548248206545    -0.009419938260566     0.000000000000000
    -0.021387540202653    -0.347699192594813    -0.000000000000000
    -0.000000000000000    -0.000000000000000    -0.011512411340912
2 5
    -0.207543502394135     0.279265687743729     0.000000000000000
     0.007444402930736     0.113472597439178     0.000000000000000
    -0.000000000000000     0.000000000000000     0.005063721194293
2 6
    -0.186919038167724     0.179076177414148     0.000000000000000
     0.289079293715599     0.227428523318057     0.000000000000000
    -0.000000000000000     0.000000000000000     0.009456705358780
2 7
    -0.206376833945981    -0.141409746014244     0.000000000000000
     0.212203327371132    -0.138199821767796    -0.000000000000000
    -0.000000000000000    -0.000000000000000    -0.011375059048119
2 8
    -0.183945750067312     0.120084870822253     0.000000000000000
     0.030693931255873     0.136128433683579     0.000000000000000
    -0.000000000000000     0.000000000000000     0.007616184635358
2 9
    -0.350234687929166     0.001095448898618     0.000000000000000
    -0.108714561854256    -0.321446834246048     0.000000000000000
    -0.000000000000000    -0.000000000000000     0.012496769439260
2 10
    -0.281815245142945     0.123827227583480     0.000000000000000
     0.117876325891079     0.083485697384795     0.000000000000000
    -0.000000000000000     0.000000000000000     0.005317822935959
2 11
    -0.350128114790292    -0.097972481618486     0.000000000000000
    -0.009811677252171    -0.321970523662108     0.000000000000000
    -0.000000000000000    -0.000000000000000     0.012492191029500
2 12
    -0.230816411595735     0.069998569776652     0.000000000000000
     0.063078058582431     0.048664400738212     0.000000000000000
    -0.000000000000000     0.000000000000000     0.016956140545264
2 13
    -0.207484067374378     0.184739924900267     0.000000000000000
    -0.114534548377057    -0.139333276570069    -0.000000000000000
    -0.000000000000000    -0.000000000000000    -0.011397951096918
2 14
    -0.187884344867909     0.262261636013873     0.000000000000000
     0.207653328444384     0.231864186890065     0.000000000000000
    -0.000000000000000     0.000000000000000     0.009449837744141
2 15
    -0.208493950339381    -0.019998347035526     0.000000000000000
     0.305728173133709     0.111286462193332     0.000000000000000
    -0.000000000000000     0.000000000000000     0.005066010399172
2 16
    -0.184755296026067     0.005129857050029     0.000000000000000
     0.147932271301310     0.141021740061649     0.000000000000000
    -0.000000000000000     0.000000000000000     0.007602449406078
2 17
    -0.006656722212743     0.033526474851340     0.000000000000000
     0.117668303165836    -0.062996027833351    -0.000000000000000
    -0.000000000000000     0.000000000000002    -0.216771677690389
2 18
     0.794686691444091     0.925854143967516     0.000000000000000