 128  128
1 1
    36.157873940967690     0.847061098477690    -0.000000000000000
     0.840430999999999    37.632824999999997    -0.000000000000000
    -0.000000000000000    -0.000000000000000    13.520961292593180
1 2
    -0.922878579585768     0.230790558351854    -0.000000000000000
     0.261543500000000    -0.198379500000000    -0.000000000000000
    -0.000000000000007     0.000000000000004    -0.066537297912049
1 3
    -0.371083412676555     0.273441272820838    -0.000000000000000
     0.279073499999997    -0.285666500000000    -0.000000000000000
    -0.000000000000007     0.000000000000007    -0.008308336102919
1 4
    -0.944984869667907     0.263362208149459    -0.000000000000000
     0.239346499999998    -0.195428000000000    -0.000000000000000
    -0.000000000000007     0.000000000000007    -0.066523848561822
1 5
    -0.078699525285208    -0.103112967574402    -0.000000000000000
     0.107867499999999    -0.413183999999999    -0.000000000000000
    -0.000000000000007     0.000000000000004     0.003076538864497
1 6
    -0.001800519178028     0.244919147902987    -0.000000000000000
     0.286931499999998     0.051028500000003    -0.000000000000000
    -0.000000000000014     0.000000000000004     0.014451326819242
1 7
     0.026430873213185    -0.184115600092383    -0.000000000000000
     0.354465500000002    -0.400345000000000    -0.000000000000000
    -0.000000000000007     0.000000000000007     0.001627371377504
1 8
     0.112043765171000    -0.105429220973599    -0.000000000000000
     0.098306500000000     0.056343000000000    -0.000000000000000
    -0.000000000000007     0.000000000000004     0.003547266122452
1 9
    -0.432484099815785     0.324959582163237    -0.000000000000000
     0.334407500000001    -0.321308999999999    -0.000000000000000
    -0.000000000000007     0.000000000000007     0.004162573895352
1 10
    -0.547820474053708     0.123992619205010    -0.000000000000000
     0.181317499999999     0.072153999999999    -0.000000000000000
    -0.000000000000014     0.000000000000007    -0.012477634673385
1 11
    -0.738903036727956     0.208792976953589    -0.000000000000000
     0.206257499999998    -0.694112499999999    -0.000000000000000
    -0.000000000000007     0.000000000000004     0.000023536362898
1 12
    -0.525139292001501     0.167886657644445    -0.000000000000000
     0.124449500000001     0.069733500000000    -0.000000000000000
    -0.000000000000007     0.000000000000004    -0.012427199610032
1 13
    -0.075045396641681     0.093699301172691    -0.000000000000000
    -0.108675999999999    -0.400230500000001    -0.000000000000000
    -0.000000000000014     0.000000000000004     0.003056364839156
1 14
     0.113956026763612     0.073503755817811    -0.000000000000000
    -0.087982000000000     0.056164500000000    -0.000000000000000
    -0.000000000000007     0.000000000000004     0.003543903784896
1 15
     0.027607960729735     0.354118790530769    -0.000000000000000
    -0.170626500000001    -0.415324999999999    -0.000000000000000
    -0.000000000000007     0.000000000000004     0.001634096052618
1 16
     0.002944741278524     0.290688031922910    -0.000000000000000
     0.240167000000003     0.048562499999999    -0.000000000000000
    -0.000000000000007     0.000000000000004     0.014434515131458
1 17
     0.206320486422687     0.720739585328843    -0.000000000000000
    -0.233169499999999    -0.252606499999999    -0.000000000000000
     0.000000000000007     0.000000000000007    -0.039198131237489
1 18
     0.072326162679470     1.383829691544790    -0.000000000000000
    -1.890697999999997    -0.244128000000000    -0.000000000000000
     0.000000000000007     0.000000000000007     0.390915451369374
1 19
     0.170989152920033     0.246715116484943    -0.000000000000000
    -0.036765999999998    -0.065978500000000    -0.000000000000000
     0.000000000000014     0.000000000000007     0.002945407699780
1 20
    -0.187301522962571     0.204644855825668    -0.000000000000000
     0.006424500000003    -0.014444500000002    -0.000000000000000
     0.000000000000014     0.000000000000004    -0.004761069980467
1 21
     0.215460105816677     0.275719604586124    -0.000000000000000
    -0.150988500000002    -0.393903500000000    -0.000000000000000
     0.000000000000007     0.000000000000004     0.017588387759762
1 22
     0.016088885213366     0.223184995454949    -0.000000000000000
    -0.192233000000000    -0.198294499999999    -0.000000000000000
     0.000000000000007     0.000000000000004    -0.007851058195191
1 23
     0.147349311962591     0.328771464803827    -0.000000000000000
    -0.334037000000000    -0.272482000000000    -0.000000000000000
     0.000000000000007     0.000000000000007     0.000938092178355
1 24
     0.245956683806751     0.367507655409776    -0.000000000000000
    -0.395451500000000    -0.174992999999999    -0.000000000000000
     0.000000000000007     0.000000000000007     0.000252175316762
1 25
     0.226909405526657     0.164155674489528    -0.000000000000000
    -0.291764000000001    -0.361716999999999    -0.000000000000000
     0.000000000000007     0.000000000000004     0.017625373472887
1 26
     0.017952607114573     0.217685852916276    -0.000000000000000
    -0.224903499999998    -0.188604499999999    -0.000000000000000
     0.000000000000007     0.000000000000004    -0.007814072482066
1 27
     0.153936552583579     0.358493430218576    -0.000000000000000
    -0.339428500000002    -0.269001000000001    -0.000000000000000
     0.000000000000007     0.000000000000007     0.000901106465230
1 28
     0.260851795984648     0.404295179654554    -0.000000000000000
    -0.390874500000001    -0.147900500000000    -0.000000000000000
     0.000000000000007     0.000000000000007     0.000245450641648
1 29
     0.199719088391706     0.220228624875359    -0.000000000000000
    -0.701784499999999    -0.255963000000001    -0.000000000000000
     0.000000000000007     0.000000000000007    -0.039191406562375
1 30
     0.061799622727964     1.866110964145264    -0.000000000000000
    -1.378496499999999    -0.264192500000000    -0.000000000000000
     0.000000000000014     0.000000000000007     0.391029770846306
1 31
     0.165480909189222     0.024236980286069    -0.000000000000000
    -0.241130499999999    -0.093698500000000    -0.000000000000000
     0.000000000000007     0.000000000000004     0.002928596011996
1 32
    -0.191007225028217    -0.007171233783193    -0.000000000000000
    -0.182733000000002    -0.026627499999998    -0.000000000000000
     0.000000000000007     0.000000000000007    -0.004737533617569
1 33
   -12.618402447294180     2.842520227779567    -0.000000000000000
     4.236768499999997    -7.760793000000000    -0.000000000000000
     0.000000000000028    -0.000000000000004    -5.641424098295881
1 34
     1.233111927247457     0.088703252310552    -0.000000000000000
     0.119654000000004    -0.175495500000000    -0.000000000000000
     0.000000000000028    -0.000000000000002     0.350809488991542
1 35
     0.576676309349956     0.166622097559006    -0.000000000000000
     0.445181500000004     0.423335000000000    -0.000000000000000
     0.000000000000028    -0.000000000000004    -0.005359566065582
1 36
     0.288721163177470    -0.268351178306603    -0.000000000000000
     0.076803499999997    -0.014710000000001    -0.000000000000000
     0.000000000000028    -0.000000000000004    -0.046013589465177
1 37
    -0.682977727903484    -0.341162737900118    -0.000000000000000
     0.371521000000001     0.690201500000001    -0.000000000000000
     0.000000000000028    -0.000000000000004    -0.001597110339493
1 38
    -0.104898318098869    -0.245780221803627    -0.000000000000000
    -0.151603999999999     0.099682500000000    -0.000000000000000
     0.000000000000028    -0.000000000000004    -0.014774111224698
1 39
    -0.160405983328552    -0.334630610053748    -0.000000000000000
    -0.077874000000001     0.799907000000000    -0.000000000000000
     0.000000000000028    -0.000000000000004     0.001459254499663
1 40
    -0.392748800561769    -0.307683496997608    -0.000000000000000
    -0.223533999999994    -0.042921000000000    -0.000000000000000
     0.000000000000028    -0.000000000000004    -0.002262853175745
1 41
     0.517140860977293    -0.236058631734571    -0.000000000000000
     0.220651500000002     0.726609500000000    -0.000000000000000
     0.000000000000028    -0.000000000000004    -0.002878160948644
1 42
     0.299851415540822    -0.344035680885106    -0.000000000000000
     0.017933499999998     0.017677500000000    -0.000000000000000
     0.000000000000028    -0.000000000000004     0.006220324480130
1 43
     0.158645913893366    -0.662619877955467    -0.000000000000000
    -0.065037000000004     0.871803500000000    -0.000000000000000
     0.000000000000028    -0.000000000000004     0.000843946726764
1 44
     0.468664372296232    -0.415707063352407    -0.000000000000000
    -0.304893000000000    -0.049106000000000    -0.000000000000000
     0.000000000000028    -0.000000000000000     0.002003953183869
1 45
    -0.452900601890917    -0.342997639359556    -0.000000000000000
     0.532010000000000     1.784247000000000    -0.000000000000000
     0.000000000000028    -0.000000000000004     0.436162427871594
1 46
    -0.391373003683533    -0.218971143494918    -0.000000000000000
    -0.019570500000000    -0.169564500000000    -0.000000000000000
     0.000000000000028    -0.000000000000002     0.033751144395429
1 47
    -0.510313955629996    -0.515183093423990    -0.000000000000000
     0.293290000000006     0.554668500000000    -0.000000000000000
     0.000000000000028    -0.000000000000000     0.000662380498695
1 48
    -0.268905339783466    -0.349260776416060    -0.000000000000000
    -0.027296499999999     0.281894000000000    -0.000000000000000
     0.000000000000028    -0.000000000000004     0.005177999837514
1 49
    -1.815261592425031     1.382126251749572    -0.000000000000000
    -1.000935500000001    -0.015418000000000    -0.000000000000000
    -0.000000000000014    -0.000000000000004     0.610482818505289
1 50
    -3.795500494740963    -0.022637698578658    -0.000000000000000
     0.941653000000002     0.930765500000000    -0.000000000000000
    -0.000000000000014    -0.000000000000004     0.495850644180387
1 51
    -1.352961481542398     0.497950997353694    -0.000000000000000
    -0.363166000000000    -0.618850999999999    -0.000000000000000
    -0.000000000000000    -0.000000000000004     0.012074154166566
1 52
    -0.458333002353903     0.542466950589246    -0.000000000000000
     0.141564500000001    -0.491754000000000    -0.000000000000000
    -0.000000000000014    -0.000000000000004     0.019837791585279
1 53
     0.409281116080987     0.880590395936958    -0.000000000000000
    -0.107937999999997    -1.118404500000000    -0.000000000000000
    -0.000000000000014    -0.000000000000007    -0.024645934291542
1 54
     0.028314314364028     0.662793811849665    -0.000000000000000
     0.139573499999997    -0.312139500000001    -0.000000000000000
    -0.000000000000014    -0.000000000000007    -0.018940047457606
1 55
     0.477289268712624     0.128594283074491    -0.000000000000000
    -0.370628499999999    -0.481999500000001    -0.000000000000000
    -0.000000000000000    -0.000000000000004    -0.001365109048072
1 56
     0.554398107860770     0.295562225934752    -0.000000000000000
     0.373767500000000    -0.128509500000000    -0.000000000000000
    -0.000000000000014    -0.000000000000004    -0.004169298570465
1 57
    -0.607558171140557     0.383321987993634    -0.000000000000000
    -0.463643500000000    -0.512100000000000    -0.000000000000000
    -0.000000000000014    -0.000000000000004    -0.012215372343952
1 58
    -0.299548548091323     0.387859943518146    -0.000000000000000
     0.078600500000000    -0.193356500000000    -0.000000000000000
    -0.000000000000014    -0.000000000000004     0.002612536281655
1 59
     0.247736472491574     0.419763161315375    -0.000000000000000
    -0.294022500000004    -0.621818500000000    -0.000000000000000
    -0.000000000000000    -0.000000000000004     0.000205102590966
1 60
    -0.352501812060861     0.315874569922077    -0.000000000000000
     0.435392000000000    -0.005809999999999    -0.000000000000000
    -0.000000000000014    -0.000000000000007     0.003950746629272
1 61
    -0.024754231372597     0.297614039140154    -0.000000000000000
    -1.155723999999999    -1.115696999999999    -0.000000000000000
    -0.000000000000014    -0.000000000000007    -0.097339672270141
1 62
     0.348179251416962     0.707944826047758    -0.000000000000000
     0.171565500000003    -0.022503499999999    -0.000000000000000
    -0.000000000000000    -0.000000000000004    -0.112624858803476
1 63
     0.596674662208510     0.738942980849009    -0.000000000000000
    -0.228112999999997    -0.511979500000001    -0.000000000000000
    -0.000000000000014    -0.000000000000004    -0.004132312857340
1 64
     0.175638850859134     0.725113719394866    -0.000000000000000
    -0.045556999999999    -0.163207000000000    -0.000000000000000
    -0.000000000000014    -0.000000000000004    -0.005820206310867
1 65
    -0.357900335864230    -0.889546474622828    -0.000000000000000
     0.374047500000003     0.895780000000000    -0.000000000000000
    -0.000000000000028    -0.000000000000004    -0.271808005756335
1 66
    -0.138369469052812    -0.958220531145916    -0.000000000000000
     0.560866000000004     0.592851500000000    -0.000000000000000
    -0.000000000000028    -0.000000000000004    -0.207889968801055
1 67
     0.193897864775700    -0.674695137435845    -0.000000000000000
     0.241846500000008     0.261782000000000    -0.000000000000000
    -0.000000000000028    -0.000000000000004    -0.002235954475290
1 68
     0.114581986534013    -0.356966452426486    -0.000000000000000
     0.361766499999995     0.096431500000000    -0.000000000000000
    -0.000000000000028    -0.000000000000004    -0.006445601096437
1 69
    -0.063709356211646    -1.005125547317768    -0.000000000000000
    -0.509636499999999     0.589845500000000    -0.000000000000000
    -0.000000000000028    -0.000000000000000     0.307670698137452
1 70
    -0.197298171282924    -0.482793467469148    -0.000000000000000
    -0.154975000000000    -0.084314000000000    -0.000000000000000
    -0.000000000000028    -0.000000000000004     0.100735633202536
1 71
     0.595075380501093    -0.257563231892009    -0.000000000000000
    -0.012069000000004     0.411137500000000    -0.000000000000000
    -0.000000000000028    -0.000000000000000    -0.011472295743894
1 72
     0.299849393053677    -0.125869487272642    -0.000000000000000
     0.108307999999994     0.197880500000000    -0.000000000000000
    -0.000000000000028    -0.000000000000004    -0.009243065943717
1 73
     0.082060393293169    -0.506938424590263    -0.000000000000000
     0.091015499999997     0.285888500000000    -0.000000000000000
    -0.000000000000028    -0.000000000000004     0.004508894663705
1 74
     0.075824559813078    -0.310076604908194    -0.000000000000000
     0.199751499999998     0.126479499999999    -0.000000000000000
    -0.000000000000028    -0.000000000000004     0.001388645410970
1 75
    -0.338196760506605    -0.273352789008382    -0.000000000000000
     0.091668499999997     0.569148500000001    -0.000000000000000
    -0.000000000000028    -0.000000000000000     0.002390622002904
1 76
    -0.142704164619559    -0.448648828296971    -0.000000000000000
    -0.016268000000004     0.335757999999999    -0.000000000000000
    -0.000000000000028    -0.000000000000004    -0.001133107756651
1 77
     0.248482264625132    -0.416277910348192    -0.000000000000000
    -0.012311499999996     0.985268500000000    -0.000000000000000
    -0.000000000000028    -0.000000000000004    -0.066796197903925
1 78
     0.042783187376777    -0.348642400972441    -0.000000000000000
     0.339747500000001     0.073941500000000    -0.000000000000000
    -0.000000000000028    -0.000000000000000    -0.026612901762285
1 79
    -0.277980239588921    -0.405759460345249    -0.000000000000000
     0.050355499999995     0.432539500000000    -0.000000000000000
    -0.000000000000028    -0.000000000000004    -0.000289161029887
1 80
    -0.151752772092166    -0.546318271729102    -0.000000000000000
    -0.065323499999998     0.409382500000000    -0.000000000000000
    -0.000000000000000    -0.000000000000004    -0.000665742836252
1 81
     0.433489781547068    -0.434495463278350    -0.000000000000000
     0.962256999999999     0.182466500000001    -0.000000000000000
     0.000000000000004     0.000000000000002    -0.252188766112250
1 82
    -0.570091596837903    -0.083941811956866    -0.000000000000000
    -0.273057500000000    -0.054624500000000    -0.000000000000000
     0.000000000000004     0.000000000000002     0.011674035997303
1 83
     0.132498188880035     0.267004201870136    -0.000000000000000
    -0.001273000000000     0.389907500000000    -0.000000000000000
    -0.000000000000000     0.000000000000002     0.003473294696202
1 84
     0.323311255142634     0.016563664069914    -0.000000000000000
    -0.068349000000000    -0.002128500000000    -0.000000000000000
     0.000000000000004     0.000000000000004     0.018536566950787
1 85
    -0.078624693260959    -0.309617500326997    -0.000000000000000
     0.578652500000000     0.392093500000000    -0.000000000000000
     0.000000000000004     0.000000000000002     0.001270963596481
1 86
    -0.112560510635740    -0.119364157380902    -0.000000000000000
     0.188102500000000     0.061095000000000    -0.000000000000000
     0.000000000000004     0.000000000000002     0.006274121881039
1 87
    -0.306937704864054    -0.283727136802470    -0.000000000000000
     0.571458000000000     0.475705000000000    -0.000000000000000
     0.000000000000004     0.000000000000002    -0.002747029783928
1 88
    -0.218217261412796    -0.104990846885604    -0.000000000000000
    -0.091345000000000    -0.088298000000000    -0.000000000000000
     0.000000000000004     0.000000000000004     0.003150510290747
1 89
    -0.057293521375934    -0.032668223558630    -0.000000000000000
     0.279826000000000     0.505015500000000    -0.000000000000000
     0.000000000000004     0.000000000000002     0.038707229954192
1 90
     0.049468518624141    -0.041601043642369    -0.000000000000000
     0.248937500000000     0.112418000000001    -0.000000000000000
     0.000000000000004     0.000000000000002    -0.006459050446665
1 91
    -0.214379086439362    -0.299791752170134    -0.000000000000000
     0.717077000000000     0.368056000000000    -0.000000000000000
     0.000000000000004     0.000000000000002     0.000870845427218
1 92
    -0.401925835967885    -0.227537387784197    -0.000000000000000
    -0.157800500000000     0.020043000000000    -0.000000000000000
     0.000000000000004     0.000000000000002    -0.004845128419388
1 93
    -5.983040789743382    -0.425988376737970    -0.000000000000000
     1.934371500000000   -17.290389500000000    -0.000000000000000
    -0.000000000000000     0.000000000000002    -5.944649786183207
1 94
    -0.203135574796068    -0.121535297327672    -0.000000000000000
    -0.065294499999999     0.179720500000000    -0.000000000000000
     0.000000000000004     0.000000000000002    -0.002037576559437
1 95
     0.062458953536203    -0.514973260383023    -0.000000000000000
     0.702822000000000     0.557203000000000    -0.000000000000000
    -0.000000000000000     0.000000000000002    -0.002915146661769
1 96
    -0.154523579476499    -0.502235636363692    -0.000000000000000
     0.558806500000000     0.419762000000000    -0.000000000000000
    -0.000000000000000     0.000000000000002    -0.003046277826485
1 97
     0.748940134791142    -0.444836945656382    -0.000000000000000
    -1.003986000000000    -0.058828500000000    -0.000000000000000
    -0.000000000000004     0.000000000000002     0.356212765445363
1 98
   -12.190285402839415    -5.419079351432406    -0.000000000000000
    -4.245183000000000    -8.975915999999998    -0.000000000000000
    -0.000000000000000    -0.000000000000000    -5.571279012185356
1 99
     1.209590907409599    -0.553705911636472    -0.000000000000000
    -0.185366500000001    -0.048312500000000    -0.000000000000000
    -0.000000000000004     0.000000000000004     0.001355022035401
1 100
     0.752933030030927    -0.201552978607575    -0.000000000000000
    -0.485807000000000    -0.138104500000000    -0.000000000000000
    -0.000000000000000     0.000000000000002     0.014068020337764
1 101
     0.218034226326459    -0.494441982162597    -0.000000000000000
    -0.485824000000000     0.410174000000000    -0.000000000000000
    -0.000000000000004     0.000000000000002    -0.045926168688700
1 102
     0.422115313861338    -0.231079774013137    -0.000000000000000
    -0.205021000000001     0.385107000000000    -0.000000000000000
    -0.000000000000004     0.000000000000004     0.019599065618744
1 103
    -0.306144889904450    -0.300164901047804    -0.000000000000000
    -0.308397500000001     0.117619000000000    -0.000000000000000
    -0.000000000000000     0.000000000000002    -0.006650703687404
1 104
    -0.222276898728262    -0.457481029645403    -0.000000000000000
    -0.228126500000000     0.311447000000000    -0.000000000000000
    -0.000000000000004     0.000000000000002     0.003927210266374
1 105
     0.658433835193637    -0.337097033123227    -0.000000000000000
    -0.186066000000000     0.151216000000000    -0.000000000000000
    -0.000000000000000     0.000000000000002     0.012786969728613
1 106
     0.496727898254665    -0.236649197979990    -0.000000000000000
    -0.232587500000000     0.014118000000000    -0.000000000000000
    -0.000000000000004     0.000000000000002    -0.011236932114916
1 107
     0.414719078383617    -0.085889467074462    -0.000000000000000
    -0.398130000000000     0.122284500000000    -0.000000000000000
    -0.000000000000004     0.000000000000002    -0.001344935022731
1 108
     0.740140293236979    -0.237091617042267    -0.000000000000000
    -0.032408999999999     0.315252500000000    -0.000000000000000
    -0.000000000000004     0.000000000000002    -0.000023536362898
1 109
     0.104248594104548    -0.349180888173957    -0.000000000000000
    -0.192329999999999    -0.131527500000000    -0.000000000000000
    -0.000000000000000     0.000000000000004     0.024218917421825
1 110
    -0.449304114130929     0.022748935371458    -0.000000000000000
     0.307449500000000    -0.209465000000000    -0.000000000000000
    -0.000000000000004     0.000000000000002     0.125969976566522
1 111
    -0.145583680687763    -0.131378236625239    -0.000000000000000
    -0.249393000000000     0.076375500000000    -0.000000000000000
    -0.000000000000004     0.000000000000002     0.002515028492507
1 112
     0.006536678442439    -0.097678544624268    -0.000000000000000
     0.169603000000000     0.234482999999999    -0.000000000000000
    -0.000000000000000     0.000000000000004    -0.000215189603637
1 113
     0.644173783978282     1.356997354633949    -0.000000000000000
     2.008953000000002    -2.535678000000001    -0.000000000000000
    -0.000000000000000    -0.000000000000004     0.555532135814066
1 114
     0.278848897816342     0.804384091675859    -0.000000000000000
     0.537552999999999     0.156796500000000    -0.000000000000000
     0.000000000000014    -0.000000000000004    -0.053999141162641
1 115
    -0.399522615621589     0.517349682774690    -0.000000000000000
     0.106822999999999    -0.264835999999999    -0.000000000000000
    -0.000000000000000    -0.000000000000007     0.003288366130577
1 116
    -0.108347164297495     0.221279306945547    -0.000000000000000
     0.052105500000000     0.069223000000001    -0.000000000000000
     0.000000000000014    -0.000000000000004     0.011368063279632
1 117
    -0.268080670651383     0.334471339191330    -0.000000000000000
    -0.355405999999999    -0.614459500000001    -0.000000000000000
     0.000000000000014    -0.000000000000004     0.004962810233877
1 118
    -0.105783156223421     0.233576028767958    -0.000000000000000
    -0.179319000000000    -0.113716000000000    -0.000000000000000
     0.000000000000014    -0.000000000000004     0.005070405035695
1 119
     0.191579083267573     0.179365283417980    -0.000000000000000
    -0.055170000000000    -0.617409500000001    -0.000000000000000
     0.000000000000014    -0.000000000000004    -0.000608583097786
1 120
    -0.129566593767933     0.210574282503771    -0.000000000000000
     0.346311500000002    -0.154624000000000    -0.000000000000000
     0.000000000000014    -0.000000000000004     0.002138446686142
1 121
    -0.215423701048124     0.446146000458940    -0.000000000000000
     0.124191000000000    -0.607675500000001    -0.000000000000000
     0.000000000000014    -0.000000000000004     0.004700547904444
1 122
    -0.035844539614896     0.263886537940984    -0.000000000000000
    -0.269774999999999    -0.071741000000001    -0.000000000000000
     0.000000000000014    -0.000000000000004     0.031723654848662
1 123
     0.242493174576346     0.278524794251863    -0.000000000000000
    -0.297010000000000    -0.792644499999998    -0.000000000000000
     0.000000000000014    -0.000000000000004    -0.000467364920399
1 124
     0.143579395930200     0.406007720641909    -0.000000000000000
     0.393106500000002    -0.248805000000001    -0.000000000000000
     0.000000000000014    -0.000000000000004    -0.007235750422292
1 125
    -0.161592172037246    -2.047900198402747    -0.000000000000000
    -1.256503499999997    -2.663159499999999    -0.000000000000000
     0.000000000000014    -0.000000000000007     0.700855727357684
1 126
    -0.383026199249144     0.108497333967776    -0.000000000000000
     0.290859500000003     0.051486500000001    -0.000000000000000
     0.000000000000014    -0.000000000000007    -0.008654656871273
1 127
    -0.385386441743673     0.303000933642455    -0.000000000000000
    -0.611880500000002    -0.549001500000001    -0.000000000000000
     0.000000000000014    -0.000000000000004     0.005443624504503
1 128
    -0.127895008145199     0.201098930244232    -0.000000000000000
    -0.512886000000002    -0.120476000000000    -0.000000000000000
     0.000000000000014    -0.000000000000004     0.032147309380823
2 1
    -0.944984869667907     0.263362208149459     0.000000000000000
     0.239346499999998    -0.195428000000000     0.000000000000000
    -0.000000000000007     0.000000000000007    -0.066523848561822
2 2
    36.157873940967690     0.847061098477690     0.000000000000000
     0.840430999999999    37.632824999999997     0.000000000000000
     0.000000000000000     0.000000000000000    13.520961292593180
2 3
    -0.922878579585768     0.230790558351854     0.000000000000000
     0.261543500000000    -0.198379500000000     0.000000000000000
    -0.000000000000007     0.000000000000004    -0.066537297912049
2 4
    -0.371083412676555     0.273441272820838     0.000000000000000
     0.279073499999997    -0.285666500000000     0.000000000000000
    -0.000000000000007     0.000000000000007    -0.008308336102919
2 5
     0.112043765171000    -0.105429220973599     0.000000000000000
     0.098306500000000     0.056343000000000     0.000000000000000
    -0.000000000000007     0.000000000000004     0.003547266122452
2 6
    -0.078699525285208    -0.103112967574402     0.000000000000000
     0.107867499999999    -0.413183999999999     0.000000000000000
    -0.000000000000007     0.000000000000004     0.003076538864497
2 7
    -0.001800519178028     0.244919147902987     0.000000000000000
     0.286931499999998     0.051028500000003     0.000000000000000
    -0.000000000000014     0.000000000000004     0.014451326819242
2 8
     0.026430873213185    -0.184115600092383     0.000000000000000
     0.354465500000002    -0.400345000000000     0.000000000000000
    -0.000000000000007     0.000000000000007     0.001627371377504
2 9
    -0.525139292001501     0.167886657644445     0.000000000000000
     0.124449500000001     0.069733500000000     0.000000000000000
    -0.000000000000007     0.000000000000004    -0.012427199610032
2 10
    -0.432484099815785     0.324959582163237     0.000000000000000
     0.334407500000001    -0.321308999999999     0.000000000000000
    -0.000000000000007     0.000000000000007     0.004162573895352
2 11
    -0.547820474053708     0.123992619205010     0.000000000000000
     0.181317499999999     0.072153999999999     0.000000000000000
    -0.000000000000014     0.000000000000007    -0.012477634673385
2 12
    -0.738903036727956     0.208792976953589     0.000000000000000
     0.206257499999998    -0.694112499999999     0.000000000000000
    -0.000000000000007     0.000000000000004     0.000023536362898
2 13
     0.002944741278524     0.290688031922910     0.000000000000000
     0.240167000000003     0.048562499999999     0.000000000000000
    -0.000000000000007     0.000000000000004     0.014434515131458
2 14
    -0.075045396641681     0.093699301172691     0.000000000000000
    -0.108675999999999    -0.400230500000001     0.000000000000000
    -0.000000000000014     0.000000000000004     0.003056364839156
2 15
     0.113956026763612     0.073503755817811     0.000000000000000
    -0.087982000000000     0.056164500000000     0.000000000000000
    -0.000000000000007     0.000000000000004     0.003543903784896
2 16
     0.027607960729735     0.354118790530769     0.000000000000000
    -0.170626500000001    -0.415324999999999     0.000000000000000
    -0.000000000000007     0.000000000000004     0.001634096052618
2 17
    -0.187301522962571     0.204644855825668     0.000000000000000
     0.006424500000003    -0.014444500000002     0.000000000000000
     0.000000000000014     0.000000000000004    -0.004761069980467
2 18
     0.206320486422687     0.720739585328843     0.000000000000000