 128  128
1 1
    39.666527081667489    -0.000000000000000    -0.000000000000000
    -0.000000000000000    40.162422772927464    -0.000000000000000
    -0.000000000000025     0.000000000000007    12.124972641798488
1 2
    -0.081200597659242    -0.116836879628162    -0.000000000000000
     0.116213077961864     0.157404974856515     0.000000000000000
     0.000000000000000    -0.000000000000000    -0.009554834461402
1 3
     0.350631067893843    -0.000000000000000    -0.000000000000000
    -0.000000000000000     0.592194184956113    -0.000000000000000
    -0.000000000000000    -0.000000000000000     0.100254304749395
1 4
    -0.081200597659242     0.116836879628162    -0.000000000000000
    -0.116213077961864     0.157404974856515     0.000000000000000
     0.000000000000000    -0.000000000000000    -0.009554834461402
1 5
    -0.070898564958780    -0.000000000000000    -0.000000000000000
    -0.000000000000000     0.273761570526020     0.000000000000000
     0.000000000000000    -0.000000000000000    -0.183164951646308
1 6
     0.036566596066205     0.223338608578288    -0.000000000000000
     0.126572201531390    -0.016170819128400    -0.000000000000000
    -0.000000000000000    -0.000000000000000     0.028831236606646
1 7
    -0.019571052120660    -0.000000000000000    -0.000000000000000
    -0.000000000000000    -0.132442152933957    -0.000000000000000
     0.000000000000000    -0.000000000000000     0.038273781346814
1 8
     0.036566596066205    -0.223338608578288    -0.000000000000000
    -0.126572201531390    -0.016170819128400    -0.000000000000000
    -0.000000000000000    -0.000000000000000     0.028831236606646
1 9
     0.217343585587478    -0.000000000000000    -0.000000000000000
    -0.000000000000000     0.650264072909557     0.000000000000000
    -0.000000000000000    -0.000000000000000    -0.128306318745051
1 10
    -0.010720523507979     0.004018649137247    -0.000000000000000
    -0.003185552989221     0.040770988778963    -0.000000000000000
     0.000000000000000    -0.000000000000000     0.006390305953887
1 11
    -0.154442175900073    -0.000000000000000    -0.000000000000000
    -0.000000000000000    -0.398777839490433    -0.000000000000000
     0.000000000000000    -0.000000000000000     0.066669469943824
1 12
    -0.010720523507979    -0.004018649137247    -0.000000000000000
     0.003185552989221     0.040770988778963    -0.000000000000000
     0.000000000000000    -0.000000000000000     0.006390305953887
1 13
    -0.069128258521228    -0.000000000000000    -0.000000000000000
    -0.000000000000000     0.271871149108171     0.000000000000000
     0.000000000000000    -0.000000000000000    -0.183161548927483
1 14
     0.036532809038579    -0.126585607935633    -0.000000000000000
    -0.223062782901033    -0.016371049478577    -0.000000000000000
    -0.000000000000000    -0.000000000000000     0.028815924371933
1 15
    -0.021301215555093    -0.000000000000000    -0.000000000000000
    -0.000000000000000    -0.130983056239609    -0.000000000000000
     0.000000000000000    -0.000000000000000     0.038280586784465
1 16
     0.036532809038579     0.126585607935633    -0.000000000000000
     0.223062782901033    -0.016371049478577    -0.000000000000000
     0.000000000000000    -0.000000000000000     0.028815924371933
1 17
     0.128232474638593    -0.188876843975628    -0.000000000000000
    -0.187681424164388    -0.264804059407728    -0.000000000000000
    -0.000000000000000     0.000000000000001     0.568982225651336
1 18
     0.128232474638593     0.188876843975628    -0.000000000000000
     0.187681424164388    -0.264804059407728    -0.000000000000000
    -0.000000000000000    -0.000000000000000     0.568982225651336
1 19
    -0.249861759789122     0.085718692660296    -0.000000000000000
     0.085546198761162     0.116507057782354     0.000000000000000
     0.000000000000000     0.000000000000000    -0.068132639038697
1 20
    -0.249861759789122    -0.085718692660296    -0.000000000000000
    -0.085546198761162     0.116507057782354     0.000000000000000
     0.000000000000000     0.000000000000000    -0.068132639038697
1 21
     0.061114711523580     0.035737308526769    -0.000000000000000
     0.036911442684235    -0.002060173545167    -0.000000000000000
    -0.000000000000000     0.000000000000000     0.054800786681227
1 22
     0.061114711523580    -0.035737308526769    -0.000000000000000
    -0.036911442684235    -0.002060173545167    -0.000000000000000
    -0.000000000000000     0.000000000000000     0.054800786681227
1 23
    -0.070118118073140    -0.123047336735711    -0.000000000000000
    -0.124976531534609     0.004418570714006     0.000000000000000
     0.000000000000000     0.000000000000000    -0.044036285677436
1 24
    -0.070118118073139     0.123047336735711    -0.000000000000000
     0.124976531534609     0.004418570714006     0.000000000000000
     0.000000000000000     0.000000000000000    -0.044036285677436
1 25
    -0.080005339741371     0.118715572174135    -0.000000000000000
     0.118241230083014    -0.155220573618176    -0.000000000000000
     0.000000000000000    -0.000000000000000     0.016111873637728
1 26
    -0.080005339741371    -0.118715572174135    -0.000000000000000
    -0.118241230083014    -0.155220573618176    -0.000000000000000
     0.000000000000000     0.000000000000001     0.016111873637728
1 27
     0.021645107281813    -0.092034859676058    -0.000000000000000
    -0.090693160421474    -0.110362416573764     0.000000000000000
    -0.000000000000000     0.000000000000000    -0.049606536394429
1 28
     0.021645107281813     0.092034859676058    -0.000000000000000
     0.090693160421474    -0.110362416573765     0.000000000000000
    -0.000000000000000     0.000000000000000    -0.049606536394429
1 29
    -0.245765500845845    -0.465932143127673    -0.000000000000000
    -0.468153219123195     0.254889377771542     0.000000000000000
     0.000000000000000     0.000000000000001    -0.237717339853290
1 30
    -0.245765500845845     0.465932143127673    -0.000000000000000
     0.468153219123195     0.254889377771542     0.000000000000000
     0.000000000000000    -0.000000000000000    -0.237717339853290
1 31
     0.019071940781879     0.045665007723146    -0.000000000000000
     0.046885537564982    -0.031874434106389     0.000000000000000
     0.000000000000000     0.000000000000000    -0.033443621974321
1 32
     0.019071940781879    -0.045665007723146    -0.000000000000000
    -0.046885537564982    -0.031874434106389     0.000000000000000
    -0.000000000000000     0.000000000000000    -0.033443621974321
1 33
    -0.279096905385677    -0.000000000000000    -0.000000000000000
    -0.000000000000000    -0.595163303983004     0.000000000000000
     0.000000000000000     0.000000000000007    -0.572868130549812
1 34
    -0.277126552982582    -0.256113697999894    -0.000000000000000
    -0.377780272941887     0.078186286641097     0.000000000000000
     0.000000000000000     0.000000000000007    -0.020940331650809
1 35
     0.298317375279097    -0.000000000000000    -0.000000000000000
    -0.000000000000000     0.341539736960843     0.000000000000000
    -0.000000000000000     0.000000000000007    -0.010990781805673
1 36
    -0.277126552982582     0.256113697999893    -0.000000000000000
     0.377780272941887     0.078186286641097     0.000000000000000
     0.000000000000000     0.000000000000007    -0.020940331650809
1 37
     0.030065102186042    -0.000000000000000    -0.000000000000000
    -0.000000000000000    -0.600816049822665    -0.000000000000000
    -0.000000000000000     0.000000000000007     0.052150068716330
1 38
    -0.007994813596193     0.185336231100525    -0.000000000000000
     0.500144936517549    -0.042456550243164    -0.000000000000000
     0.000000000000000    -0.000000000000000     0.010934636945056
1 39
    -0.033742870321803    -0.000000000000000    -0.000000000000000
    -0.000000000000000     0.410103392784796     0.000000000000000
     0.000000000000000     0.000000000000007    -0.051081615005190
1 40
    -0.007994813596193    -0.185336231100525    -0.000000000000000
    -0.500144936517549    -0.042456550243163    -0.000000000000000
    -0.000000000000000     0.000000000000011     0.010934636945056
1 41
     0.457082283565044    -0.000000000000000    -0.000000000000000
    -0.000000000000000     0.172261372399076    -0.000000000000000
    -0.000000000000000     0.000000000000007     0.107723272570897
1 42
     0.062800383129555     0.021986991858378    -0.000000000000000
     0.264653597294879    -0.085774978332751    -0.000000000000000
    -0.000000000000000     0.000000000000007     0.006136803401403
1 43
    -0.355518478523592    -0.000000000000000    -0.000000000000000
    -0.000000000000000    -0.202126944398781     0.000000000000000
     0.000000000000000     0.000000000000004    -0.024717349546876
1 44
     0.062800383129555    -0.021986991858378    -0.000000000000000
    -0.264653597294879    -0.085774978332751    -0.000000000000000
    -0.000000000000000     0.000000000000007     0.006136803401403
1 45
    -6.621798446210125    -0.000000000000000    -0.000000000000000
    -0.000000000000000   -16.716510489678544     0.000000000000000
     0.000000000000005     0.000000000000004    -5.446925978607983
1 46
    -0.037764864709309    -0.113404987386505    -0.000000000000000
    -0.480332548457907    -0.037956189867817    -0.000000000000000
    -0.000000000000000     0.000000000000007     0.000469575197889
1 47
     0.049844228872869    -0.000000000000000    -0.000000000000000
    -0.000000000000000    -0.557760737530421     0.000000000000000
    -0.000000000000000     0.000000000000007    -0.042445514626615
1 48
    -0.037764864709309     0.113404987386505    -0.000000000000000
     0.480332548457907    -0.037956189867817    -0.000000000000000
     0.000000000000000     0.000000000000007     0.000469575197889
1 49
     0.666840848713170    -1.181407243694698    -0.000000000000000
    -1.957250515572508    -1.742635987407816    -0.000000000000000
     0.000000000000005     0.000000000000011     1.142241668866056
1 50
     0.432762314175396     0.068640855558360    -0.000000000000000
     0.108338122455508    -0.217479866913745    -0.000000000000000
     0.000000000000005     0.000000000000007     0.080498119249786
1 51
    -0.054897898440538     0.169252602375837    -0.000000000000000
    -0.042912951985474    -0.028509483982619     0.000000000000000
     0.000000000000004     0.000000000000007    -0.081461088677341
1 52
     0.221961034521252    -0.017564571014756    -0.000000000000000
    -0.132837598230545     0.200741149759411     0.000000000000000
     0.000000000000005     0.000000000000007    -0.224980963290245
1 53
    -0.047147957163370     0.075849200818443    -0.000000000000000
    -0.077234903127541     0.155253366642770    -0.000000000000000
     0.000000000000007     0.000000000000004     0.119016896352021
1 54
     0.151329755058240    -0.090959696242518    -0.000000000000000
    -0.140566335427238     0.193162874675567     0.000000000000000
     0.000000000000002     0.000000000000011    -0.029804414190678
1 55
     0.008121933106071    -0.065668935227439    -0.000000000000000
     0.011700936975906    -0.115674886558210     0.000000000000000
     0.000000000000005     0.000000000000007    -0.048208018957236
1 56
    -0.091780286131280     0.093976777451946    -0.000000000000000
     0.217149236065765    -0.244027942225273     0.000000000000000
     0.000000000000005     0.000000000000011    -0.004367389612254
1 57
    -0.154290636063298     0.287622610198119    -0.000000000000000
    -0.037586593190610     0.127685235366185    -0.000000000000000
     0.000000000000004     0.000000000000007     0.134034795887419
1 58
    -0.107311279513028     0.051113082296457    -0.000000000000000
    -0.043639028130042     0.286389971397542     0.000000000000000
     0.000000000000004     0.000000000000007    -0.014046423310780
1 59
     0.149656126353199    -0.213854824091403    -0.000000000000000
     0.011714825786329     0.074448267637516     0.000000000000000
     0.000000000000002     0.000000000000007    -0.057958509751093
1 60
     0.054626264119431     0.000726922881483    -0.000000000000000
     0.005439398279644    -0.202563284526045    -0.000000000000000
     0.000000000000005     0.000000000000007     0.025925314729852
1 61
     0.200396882295728     2.090660983443218    -0.000000000000000
     0.500652649698343    -1.572356085294878    -0.000000000000000
     0.000000000000005     0.000000000000004     0.747214936360392
1 62
    -0.034102484724744     0.030647175731271    -0.000000000000000
     0.170010999311256    -0.217500314329083     0.000000000000000
     0.000000000000005     0.000000000000011    -0.014420722381561
1 63
    -0.023083564893581     0.037249696169280    -0.000000000000000
     0.001946748260098     0.071986090190839     0.000000000000000
     0.000000000000005     0.000000000000011    -0.047961321842403
1 64
     0.127927053289862    -0.024473516376579    -0.000000000000000
    -0.165735946304892     0.145084442615893    -0.000000000000000
     0.000000000000005     0.000000000000007     0.005793128800049
1 65
    -0.110100549179752    -0.531994479785681    -0.000000000000000
    -0.318954602221593    -0.185900955829004    -0.000000000000000
    -0.000000000000004    -0.000000000000007     0.244944714638197
1 66
   -14.772246800020509    -4.574004837697679    -0.000000000000000
    -4.905928685733293    -9.553952192833130     0.000000000000000
     0.000000000000004    -0.000000000000007    -5.789462370514789
1 67
     0.242203143844053     0.135063810194387    -0.000000000000000
    -0.111365497326093    -0.026494449071302    -0.000000000000000
    -0.000000000000004    -0.000000000000011     0.128440726138650
1 68
    -0.004093917268095    -0.307692439132532    -0.000000000000000
    -0.049091543619525    -0.119967300577596    -0.000000000000000
    -0.000000000000004    -0.000000000000004     0.037264875215117
1 69
     0.055176892312214    -0.171277816883194    -0.000000000000000
    -0.112401756903306     0.202364211576736     0.000000000000000
    -0.000000000000007    -0.000000000000007    -0.035832330589672
1 70
     0.061620513362881    -0.135450521124431    -0.000000000000000
     0.203496149625713    -0.152888025068723     0.000000000000000
    -0.000000000000007    -0.000000000000011    -0.100996097453307
1 71
    -0.112344543054109     0.142723429714533    -0.000000000000000
     0.020781132586217    -0.093357883020060    -0.000000000000000
    -0.000000000000004    -0.000000000000007     0.000962969427556
1 72
    -0.002525663946242     0.072152030231173    -0.000000000000000
    -0.188211899562253     0.069310179383859    -0.000000000000000
    -0.000000000000005    -0.000000000000007     0.081294355454902
1 73
     0.186115674411086    -0.017698046500128    -0.000000000000000
    -0.148155798719471     0.142399272601972     0.000000000000000
    -0.000000000000005    -0.000000000000011    -0.118312533555186
1 74
     0.070586453109529    -0.315472487662037    -0.000000000000000
    -0.034952348814880    -0.296833199430152     0.000000000000000
    -0.000000000000007    -0.000000000000011    -0.091589281260805
1 75
    -0.156153271408024    -0.019188020965899    -0.000000000000000
     0.052861198246834    -0.138762719074498    -0.000000000000000
    -0.000000000000004    -0.000000000000007     0.101540532465353
1 76
    -0.051865429079915     0.233896218398611    -0.000000000000000
     0.033637927229043     0.069966811476348    -0.000000000000000
    -0.000000000000004    -0.000000000000011     0.041846636113364
1 77
    -0.079498534326993     0.087847275400684    -0.000000000000000
    -0.029037644578748    -0.212920479094125    -0.000000000000000
    -0.000000000000004    -0.000000000000007     0.033157793592997
1 78
    -0.458730153843084     0.303942748116187    -0.000000000000000
    -0.471436379585622     0.257290212972208    -0.000000000000000
    -0.000000000000004    -0.000000000000007     0.348574516462275
1 79
     0.085603281526328    -0.071273902037944    -0.000000000000000
     0.039482415812513     0.249503991532404    -0.000000000000000
    -0.000000000000005    -0.000000000000007     0.003210465211657
1 80
    -0.000201049540621    -0.027521708413422    -0.000000000000000
     0.279775811236807     0.014779623284982    -0.000000000000000
    -0.000000000000005    -0.000000000000007     0.058906166943935
1 81
   -14.772246800020509     4.574004837697677    -0.000000000000000
     4.905928685733289    -9.553952192833130     0.000000000000000
     0.000000000000014    -0.000000000000012    -5.789462370514789
1 82
    -0.110100549179752     0.531994479785681    -0.000000000000000
     0.318954602221594    -0.185900955829009    -0.000000000000000
     0.000000000000005    -0.000000000000007     0.244944714638197
1 83
    -0.004093917268095     0.307692439132532    -0.000000000000000
     0.049091543619526    -0.119967300577596    -0.000000000000000
     0.000000000000005    -0.000000000000011     0.037264875215117
1 84
     0.242203143844053    -0.135063810194387    -0.000000000000000
     0.111365497326095    -0.026494449071306    -0.000000000000000
     0.000000000000007    -0.000000000000007     0.128440726138650
1 85
     0.061620513362881     0.135450521124431    -0.000000000000000
    -0.203496149625712    -0.152888025068723     0.000000000000000
     0.000000000000002    -0.000000000000004    -0.100996097453307
1 86
     0.055176892312214     0.171277816883194    -0.000000000000000
     0.112401756903304     0.202364211576734     0.000000000000000
     0.000000000000002    -0.000000000000007    -0.035832330589672
1 87
    -0.002525663946242    -0.072152030231173    -0.000000000000000
     0.188211899562251     0.069310179383860    -0.000000000000000
     0.000000000000005    -0.000000000000007     0.081294355454902
1 88
    -0.112344543054109    -0.142723429714533    -0.000000000000000
    -0.020781132586217    -0.093357883020060    -0.000000000000000
     0.000000000000005    -0.000000000000007     0.000962969427556
1 89
     0.070586453109529     0.315472487662037    -0.000000000000000
     0.034952348814878    -0.296833199430152     0.000000000000000
     0.000000000000004    -0.000000000000004    -0.091589281260805
1 90
     0.186115674411086     0.017698046500128    -0.000000000000000
     0.148155798719469     0.142399272601976     0.000000000000000
     0.000000000000004    -0.000000000000007    -0.118312533555186
1 91
    -0.051865429079915    -0.233896218398611    -0.000000000000000
    -0.033637927229040     0.069966811476350    -0.000000000000000
     0.000000000000004    -0.000000000000007     0.041846636113364
1 92
    -0.156153271408024     0.019188020965899    -0.000000000000000
    -0.052861198246833    -0.138762719074494    -0.000000000000000
     0.000000000000004    -0.000000000000007     0.101540532465353
1 93
    -0.458730153843084    -0.303942748116187    -0.000000000000000
     0.471436379585623     0.257290212972206    -0.000000000000000
     0.000000000000007    -0.000000000000007     0.348574516462275
1 94
    -0.079498534326993    -0.087847275400684    -0.000000000000000
     0.029037644578747    -0.212920479094130    -0.000000000000000
     0.000000000000005    -0.000000000000007     0.033157793592997
1 95
    -0.000201049540621     0.027521708413422    -0.000000000000000
    -0.279775811236810     0.014779623284980    -0.000000000000000
     0.000000000000004    -0.000000000000007     0.058906166943935
1 96
     0.085603281526328     0.071273902037944    -0.000000000000000
    -0.039482415812510     0.249503991532407    -0.000000000000000
     0.000000000000005    -0.000000000000007     0.003210465211657
1 97
     0.666840848713170     1.181407243694698    -0.000000000000000
     1.957250515572506    -1.742635987407816    -0.000000000000000
    -0.000000000000005     0.000000000000007     1.142241668866056
1 98
     0.221961034521252     0.017564571014756    -0.000000000000000
     0.132837598230547     0.200741149759414     0.000000000000000
    -0.000000000000004     0.000000000000007    -0.224980963290245
1 99
    -0.054897898440538    -0.169252602375837    -0.000000000000000
     0.042912951985473    -0.028509483982621     0.000000000000000
    -0.000000000000007     0.000000000000007    -0.081461088677341
1 100
     0.432762314175396    -0.068640855558360    -0.000000000000000
    -0.108338122455510    -0.217479866913745    -0.000000000000000
    -0.000000000000004     0.000000000000007     0.080498119249786
1 101
    -0.047147957163370    -0.075849200818443    -0.000000000000000
     0.077234903127544     0.155253366642770    -0.000000000000000
    -0.000000000000004     0.000000000000011     0.119016896352021
1 102
    -0.091780286131280    -0.093976777451946    -0.000000000000000
    -0.217149236065766    -0.244027942225273     0.000000000000000
    -0.000000000000005     0.000000000000007    -0.004367389612254
1 103
     0.008121933106071     0.065668935227439    -0.000000000000000
    -0.011700936975909    -0.115674886558210     0.000000000000000
    -0.000000000000004     0.000000000000007    -0.048208018957236
1 104
     0.151329755058240     0.090959696242518    -0.000000000000000
     0.140566335427241     0.193162874675574     0.000000000000000
    -0.000000000000005     0.000000000000007    -0.029804414190678
1 105
    -0.154290636063298    -0.287622610198119    -0.000000000000000
     0.037586593190611     0.127685235366187    -0.000000000000000
    -0.000000000000005     0.000000000000007     0.134034795887419
1 106
     0.054626264119431    -0.000726922881483    -0.000000000000000
    -0.005439398279645    -0.202563284526043    -0.000000000000000
    -0.000000000000002     0.000000000000007     0.025925314729852
1 107
     0.149656126353199     0.213854824091403    -0.000000000000000
    -0.011714825786325     0.074448267637518     0.000000000000000
    -0.000000000000007     0.000000000000007    -0.057958509751093
1 108
    -0.107311279513028    -0.051113082296457    -0.000000000000000
     0.043639028130042     0.286389971397542     0.000000000000000
    -0.000000000000004     0.000000000000007    -0.014046423310780
1 109
     0.200396882295728    -2.090660983443218    -0.000000000000000
    -0.500652649698342    -1.572356085294878    -0.000000000000000
    -0.000000000000005     0.000000000000011     0.747214936360392
1 110
     0.127927053289862     0.024473516376579    -0.000000000000000
     0.165735946304891     0.145084442615893    -0.000000000000000
    -0.000000000000004     0.000000000000011     0.005793128800049
1 111
    -0.023083564893581    -0.037249696169280    -0.000000000000000
    -0.001946748260099     0.071986090190842     0.000000000000000
    -0.000000000000004     0.000000000000004    -0.047961321842403
1 112
    -0.034102484724744    -0.030647175731271    -0.000000000000000
    -0.170010999311256    -0.217500314329083     0.000000000000000
    -0.000000000000004     0.000000000000007    -0.014420722381561
1 113
    -2.209158110775379     0.909211589595244    -0.000000000000000
    -0.777374080044310     1.113330901017870    -0.000000000000000
     0.000000000000001    -0.000000000000007     0.432175915280721
1 114
    -2.209158110775379    -0.909211589595245    -0.000000000000000
     0.777374080044310     1.113330901017866    -0.000000000000000
     0.000000000000001    -0.000000000000007     0.432175915280721
1 115
    -0.286385202126974    -0.102300429148686    -0.000000000000000
     0.169680754263567     0.126382773589318     0.000000000000000
     0.000000000000000    -0.000000000000007    -0.065747333142172
1 116
    -0.286385202126974     0.102300429148686    -0.000000000000000
    -0.169680754263567     0.126382773589318     0.000000000000000
     0.000000000000000    -0.000000000000007    -0.065747333142172
1 117
    -0.041510875950372     0.025447653252270    -0.000000000000000
     0.410687880223174    -0.121052942591847     0.000000000000000
     0.000000000000000    -0.000000000000007    -0.093874206951984
1 118
    -0.041510875950372    -0.025447653252270    -0.000000000000000
    -0.410687880223174    -0.121052942591849     0.000000000000000
    -0.000000000000000    -0.000000000000007    -0.093874206951984
1 119
     0.080131790201196    -0.285786736855473    -0.000000000000000
    -0.227871011907290    -0.076661603897561    -0.000000000000000
    -0.000000000000000    -0.000000000000007     0.025966147355756
1 120
     0.080131790201196     0.285786736855476    -0.000000000000000
     0.227871011907289    -0.076661603897561    -0.000000000000000
    -0.000000000000000    -0.000000000000007     0.025966147355756
1 121
    -0.302761874774432    -0.060266690582688    -0.000000000000000
     0.322991230649136     0.063532820050739    -0.000000000000000
     0.000000000000000    -0.000000000000007     0.016293919094881
1 122
    -0.302761874774432     0.060266690582688    -0.000000000000000
    -0.322991230649136     0.063532820050739    -0.000000000000000
     0.000000000000000    -0.000000000000007     0.016293919094881
1 123
     0.217418184668274     0.099655674293190    -0.000000000000000
    -0.133728025298384    -0.064855343442654     0.000000000000000
    -0.000000000000000    -0.000000000000007    -0.008758598256286
1 124
     0.217418184668274    -0.099655674293190    -0.000000000000000
     0.133728025298384    -0.064855343442655     0.000000000000000
    -0.000000000000000    -0.000000000000007    -0.008758598256286
1 125
     0.141071210611156    -0.277059982502410    -0.000000000000000
    -0.374865165955505     0.162661503799002     0.000000000000000
    -0.000000000000000    -0.000000000000004    -0.211121689514856
1 126
     0.141071210611156     0.277059982502409    -0.000000000000000
     0.374865165955505     0.162661503799002     0.000000000000000
    -0.000000000000000    -0.000000000000007    -0.211121689514856
1 127
    -0.080918927587357     0.177362492580969    -0.000000000000000
     0.222151522617571    -0.000919747889828    -0.000000000000000
     0.000000000000000    -0.000000000000007     0.029208938396253
1 128
    -0.080918927587357    -0.177362492580969    -0.000000000000000
    -0.222151522617571    -0.000919747889824    -0.000000000000000
    -0.000000000000000    -0.000000000000007     0.029208938396253
2 1
    -0.081200597659242     0.116836879628162     0.000000000000000
    -0.116213077961864     0.157404974856515     0.000000000000000
     0.000000000000000    -0.000000000000000    -0.009554834461402
2 2
    39.666527081667489     0.000000000000000     0.000000000000000
     0.000000000000000    40.162422772927464    -0.000000000000000
    -0.000000000000025     0.000000000000007    12.124972641798488
2 3
    -0.081200597659242    -0.116836879628162     0.000000000000000
     0.116213077961864     0.157404974856515     0.000000000000000
     0.000000000000000    -0.000000000000000    -0.009554834461402
2 4
     0.350631067893843     0.000000000000000     0.000000000000000
    -0.000000000000000     0.592194184956113    -0.000000000000000
    -0.000000000000000    -0.000000000000000     0.100254304749395
2 5
     0.036566596066205    -0.223338608578288     0.000000000000000
    -0.126572201531390    -0.016170819128400    -0.000000000000000
    -0.000000000000000    -0.000000000000000     0.028831236606646
2 6
    -0.070898564958780     0.000000000000000     0.000000000000000
     0.000000000000000     0.273761570526020     0.000000000000000
     0.000000000000000    -0.000000000000000    -0.183164951646308
2 7
     0.036566596066205     0.223338608578288     0.000000000000000
     0.126572201531390    -0.016170819128400    -0.000000000000000
     0.000000000000000    -0.000000000000000     0.028831236606646
2 8
    -0.019571052120660     0.000000000000000     0.000000000000000
    -0.000000000000000    -0.132442152933957    -0.000000000000000
     0.000000000000000    -0.000000000000000     0.038273781346814
2 9
    -0.010720523507979    -0.004018649137247     0.000000000000000
     0.003185552989221     0.040770988778963    -0.000000000000000
     0.000000000000000    -0.000000000000000     0.006390305953887
2 10
     0.217343585587478     0.000000000000000     0.000000000000000
     0.000000000000000     0.650264072909557     0.000000000000000
    -0.000000000000000    -0.000000000000000    -0.128306318745051
2 11
    -0.010720523507979     0.004018649137247     0.000000000000000
    -0.003185552989221     0.040770988778963    -0.000000000000000
     0.000000000000000    -0.000000000000000     0.006390305953887
2 12
    -0.154442175900073     0.000000000000000     0.000000000000000
     0.000000000000000    -0.398777839490433    -0.000000000000000
     0.000000000000000    -0.000000000000000     0.066669469943824
2 13
     0.036532809038579     0.126585607935633     0.000000000000000
     0.223062782901033    -0.016371049478577    -0.000000000000000
     0.000000000000000    -0.000000000000000     0.028815924371933
2 14
    -0.069128258521228     0.000000000000000     0.000000000000000
     0.000000000000000     0.271871149108171     0.000000000000000
     0.000000000000000    -0.000000000000000    -0.183161548927483
2 15
     0.036532809038579    -0.126585607935633     0.000000000000000
    -0.223062782901033    -0.016371049478577    -0.000000000000000
    -0.000000000000000     0.000000000000000     0.028815924371933
2 16
    -0.021301215555093     0.000000000000000     0.000000000000000
     0.000000000000000    -0.130983056239609    -0.000000000000000
     0.000000000000000    -0.000000000000000     0.038280586784465
2 17
    -0.249861759789122    -0.085718692660296     0.000000000000000
    -0.085546198761162     0.116507057782354     0.000000000000000
     0.000000000000000     0.000000000000000    -0.068132639038697
2 18
     0.128232474638593    -0.188876843975628     0.000000000000000