 128  128
1 1
    25.980293946606455     0.002151322361065    -0.000000000000000
     0.005060091594043    24.480986876311242    -0.000000000000000
     0.000000000000009    -0.000000000000022    11.412805282285021
1 2
     1.454562514037536     0.293139885609855    -0.000000000000000
    -0.291874541241552     0.081875963819576    -0.000000000000000
     0.000000000000001    -0.000000000000004     0.180631963395268
1 3
     0.117502719093477    -0.000255396541803    -0.000000000000000
    -0.000244823443991     0.141653258639546    -0.000000000000000
     0.000000000000000    -0.000000000000004     0.009490612822629
1 4
     1.454354337929904    -0.293717701245186    -0.000000000000000
     0.291336085093199     0.081500823744878    -0.000000000000000
     0.000000000000000    -0.000000000000002     0.180646330051070
1 5
    -0.002281813238294    -0.005976685275471    -0.000000000000000
    -0.001136908115892     0.002798890313112    -0.000000000000000
    -0.000000000000000    -0.000000000000002     0.000189639856583
1 6
     0.001789806779036    -0.006727134756156    -0.000000000000000
     0.001517125265691    -0.007899398354255    -0.000000000000000
    -0.000000000000000    -0.000000000000002    -0.000014366655802
1 7
    -0.002990627497453    -0.004741845534587     0.000000000000000
     0.000064664096665    -0.011095115337781    -0.000000000000000
    -0.000000000000000    -0.000000000000002     0.000034479973924
1 8
     0.001050019977034     0.013089707450653     0.000000000000000
    -0.001057667804286    -0.012600920826451    -0.000000000000000
    -0.000000000000000    -0.000000000000004    -0.000002873331160
1 9
    -0.000404674043374     0.002152845600883     0.000000000000000
    -0.000104816258421    -0.007309199825817    -0.000000000000000
    -0.000000000000000    -0.000000000000002     0.000008619993481
1 10
     0.000518917029269     0.003018045814067    -0.000000000000000
    -0.000253214098874    -0.007179171868166    -0.000000000000000
    -0.000000000000000    -0.000000000000004     0.000054593292047
1 11
    -0.000663624811404    -0.002577321761812    -0.000000000000000
    -0.000029938829301    -0.007086260158786    -0.000000000000000
    -0.000000000000000    -0.000000000000004     0.000014366655802
1 12
     0.000557505771172    -0.003478571983880    -0.000000000000000
     0.000351618638363    -0.007147676489788    -0.000000000000000
    -0.000000000000000    -0.000000000000002     0.000054593292047
1 13
    -0.001153092537643    -0.002788036602465    -0.000000000000000
    -0.004711612184062     0.003014428365277    -0.000000000000000
    -0.000000000000000    -0.000000000000002     0.000218373168186
1 14
     0.000215792306692    -0.003025154266525    -0.000000000000000
     0.011310822801862    -0.012669513004877    -0.000000000000000
    -0.000000000000000    -0.000000000000002     0.000011493324641
1 15
    -0.003107916962973     0.001634436318217    -0.000000000000000
    -0.005778000920322    -0.011322241311688    -0.000000000000000
    -0.000000000000000    -0.000000000000002     0.000028733311603
1 16
     0.001754264516757     0.002943407063282    -0.000000000000000
    -0.004322992308743    -0.007554011273564    -0.000000000000000
    -0.000000000000000    -0.000000000000004     0.000002873331160
1 17
    -0.003938590407087     0.008767260610956    -0.000000000000000
     0.006389764048795    -0.005546596431312    -0.000000000000000
     0.000000000000000     0.000000000000002    -0.000074706610169
1 18
    -0.002538733019909     0.005295289332927    -0.000000000000000
     0.005191849253630     0.028486405800138    -0.000000000000000
     0.000000000000000     0.000000000000004     0.000020113318122
1 19
     0.001755280009965    -0.007764968814694    -0.000000000000000
    -0.005912068181237     0.027313648646819    -0.000000000000000
     0.000000000000000     0.000000000000002     0.000022986649283
1 20
    -0.004838317389343    -0.019743726695834    -0.000000000000000
    -0.019567977240573    -0.077528607457826    -0.000000000000000
     0.000000000000000     0.000000000000002     0.000255726473271
1 21
     0.469458448068776     0.426689428375574     0.000000000000000
     0.428189291245103    -0.243535283818127    -0.000000000000000
    -0.000000000000000     0.000000000000002    -0.081134251974743
1 22
    -0.095255293893409    -0.158028514290287     0.000000000000000
    -0.157202495529411    -0.115097803409125    -0.000000000000000
     0.000000000000000     0.000000000000004    -0.047205957633355
1 23
    -0.098813074347510     0.159058732149767    -0.000000000000000
     0.157535675300802    -0.114143608090295    -0.000000000000000
    -0.000000000000000     0.000000000000002    -0.047148491010148
1 24
     0.469649868538477    -0.426714815705773     0.000000000000000
    -0.429409698629394    -0.247810321613987    -0.000000000000000
     0.000000000000001     0.000000000000002    -0.082705964119453
1 25
     0.001026155886647     0.002519438648958    -0.000000000000000
    -0.000211536136793    -0.008548703472287    -0.000000000000000
     0.000000000000000     0.000000000000004     0.000077579941329
1 26
    -0.002145737148427     0.002121873058040     0.000000000000000
     0.001685718110088    -0.008488878169754    -0.000000000000000
     0.000000000000000     0.000000000000002    -0.000011493324641
1 27
     0.000235086677644    -0.002530609074245    -0.000000000000000
    -0.001238727248659    -0.007977754517643    -0.000000000000000
     0.000000000000000     0.000000000000002     0.000031606642764
1 28
     0.000164002153086    -0.001432860916436    -0.000000000000000
    -0.000305046562206    -0.007572447084476    -0.000000000000000
     0.000000000000000     0.000000000000004     0.000002873331160
1 29
     0.000419398694889    -0.003438460002165    -0.000000000000000
    -0.000487884855805    -0.008274646406230    -0.000000000000000
     0.000000000000000     0.000000000000004     0.000008619993481
1 30
     0.000167556379314    -0.000739786802000    -0.000000000000000
    -0.000083464933327    -0.008403638833018    -0.000000000000000
     0.000000000000000     0.000000000000002     0.000045973298566
1 31
    -0.000268597953506     0.004192463709078    -0.000000000000000
    -0.000074948201640    -0.008352988450196    -0.000000000000000
     0.000000000000000     0.000000000000002     0.000020113318122
1 32
    -0.000190912723097     0.000471696595100    -0.000000000000000
     0.000649117211468    -0.008219667936901    -0.000000000000000
     0.000000000000000     0.000000000000002     0.000022986649283
1 33
    -0.951974107805549    -1.495150762066636    -0.000000000000000
     1.146802217342363    -1.018605208843955    -0.000000000000000
    -0.000000000000005     0.000000000000008     0.163883316061601
1 34
    -0.300541307856099    -0.100869955840238    -0.000000000000000
    -0.017549144242341    -0.056970490339413    -0.000000000000000
    -0.000000000000002     0.000000000000007     0.028210365332295
1 35
    -0.144377746842236     0.224091424934368     0.000000000000000
    -0.113443271299614     0.018460079453309    -0.000000000000000
    -0.000000000000002     0.000000000000014    -0.030862449993296
1 36
    -8.016247531538829    -3.570561451616167     0.000000000000000
    -2.598586435464448    -2.849486636045839    -0.000000000000000
    -0.000000000000006     0.000000000000009    -4.779611112037887
1 37
     0.007080526392526    -0.000711860738782    -0.000000000000000
     0.003694816990017     0.002744684953520    -0.000000000000000
    -0.000000000000002     0.000000000000007     0.000086199934810
1 38
    -0.015882821519156    -0.000273167672940    -0.000000000000000
    -0.019214472761725     0.002316138415058    -0.000000000000000
    -0.000000000000002     0.000000000000014     0.000063213285528
1 39
     0.011302439404635    -0.002297045636414    -0.000000000000000
    -0.022488512926404     0.006287062476733    -0.000000000000000
    -0.000000000000002     0.000000000000014     0.000063213285528
1 40
    -0.003273442355872     0.005528852770759    -0.000000000000000
    -0.005377089613092    -0.002113393994172    -0.000000000000000
    -0.000000000000002     0.000000000000007     0.000002873331160
1 41
     0.009228294527370    -0.002651452765992    -0.000000000000000
    -0.009545316385672     0.000747802584733    -0.000000000000000
    -0.000000000000002     0.000000000000014     0.000025859980443
1 42
    -0.000847429082046    -0.000981981932100    -0.000000000000000
    -0.010740643695500     0.002311118439302    -0.000000000000000
    -0.000000000000002     0.000000000000014     0.000040226636245
1 43
    -0.011239986572346     0.001718722254484    -0.000000000000000
    -0.013310555046683     0.003434681332358    -0.000000000000000
    -0.000000000000002     0.000000000000007     0.000048846629726
1 44
     0.000939331217366    -0.000413305735638    -0.000000000000000
    -0.011471618893876     0.001985704195985    -0.000000000000000
    -0.000000000000002     0.000000000000014     0.000034479973924
1 45
    -0.008017318876873    -0.001578584191773    -0.000000000000000
    -0.034353108865904     0.010831389914983    -0.000000000000000
    -0.000000000000002     0.000000000000007    -0.000051719960886
1 46
     0.004974901225814    -0.002413319608724    -0.000000000000000
    -0.017341921253410    -0.003386928896031    -0.000000000000000
    -0.000000000000002     0.000000000000014     0.000025859980443
1 47
     0.002275720279047     0.000407212776395    -0.000000000000000
    -0.005620144925093    -0.004026992767649    -0.000000000000000
    -0.000000000000002     0.000000000000014     0.000025859980443
1 48
    -0.007259760943732     0.001459771486452    -0.000000000000000
     0.013666827801509     0.005527081449696    -0.000000000000000
    -0.000000000000002     0.000000000000007    -0.000014366655802
1 49
    -8.058919571630669     3.560067344805078     0.000000000000000
     2.593607495248611    -2.862200002198204    -0.000000000000000
    -0.000000000000003     0.000000000000017    -4.782007470225617
1 50
    -0.139968983079861    -0.224346313729562     0.000000000000000
     0.113825131621280     0.019308158800666    -0.000000000000000
     0.000000000000002     0.000000000000014    -0.031181389752095
1 51
    -0.294567669060251     0.099389366743033    -0.000000000000000
     0.017084157333381    -0.055254706914003    -0.000000000000000
     0.000000000000002     0.000000000000007     0.028368398546114
1 52
    -0.951254630867707     1.502653733633676    -0.000000000000000
    -1.141925588088061    -1.022632315664957    -0.000000000000000
     0.000000000000003     0.000000000000015     0.162805816876470
1 53
    -0.009777168606274    -0.002654499245615     0.000000000000000
    -0.005448900692762    -0.004625874393810    -0.000000000000000
     0.000000000000002     0.000000000000014    -0.000264346466752
1 54
     0.018378396077726    -0.004655528611909     0.000000000000000
     0.017631837085401     0.001522833083470    -0.000000000000000
     0.000000000000002     0.000000000000014     0.000017239986962
1 55
    -0.007690330063909     0.006542822738911    -0.000000000000000
     0.022356356073364     0.003601677674503    -0.000000000000000
     0.000000000000002     0.000000000000014     0.000020113318122
1 56
     0.000089871148905    -0.004989118130723     0.000000000000000
     0.008487251477534     0.004860243808210    -0.000000000000000
     0.000000000000002     0.000000000000007     0.000005746662321
1 57
    -0.005906108497517    -0.001844135665664    -0.000000000000000
     0.009948318500433     0.000740538076702    -0.000000000000000
     0.000000000000002     0.000000000000014     0.000045973298566
1 58
    -0.008208739346574    -0.002449877364214     0.000000000000000
     0.010723182171553     0.001449176820262    -0.000000000000000
     0.000000000000002     0.000000000000007     0.000020113318122
1 59
     0.007650218082195     0.000863676973371     0.000000000000000
     0.012411409546728     0.002958321262458    -0.000000000000000
     0.000000000000004     0.000000000000014     0.000034479973924
1 60
     0.008406252775523     0.001123643234614     0.000000000000000
     0.011769826122939     0.001967545852576    -0.000000000000000
     0.000000000000002     0.000000000000014     0.000020113318122
1 61
     0.004134580596224    -0.003026677506334     0.000000000000000
    -0.014779139950718    -0.000880764461609    -0.000000000000000
     0.000000000000002     0.000000000000007     0.000074706610169
1 62
     0.005483663323004    -0.000352376143162     0.000000000000000
     0.012502743643291    -0.005204720128756    -0.000000000000000
     0.000000000000004     0.000000000000014     0.000008619993481
1 63
     0.003346050120240     0.002184325890333     0.000000000000000
     0.027854473743672     0.002243276105951    -0.000000000000000
     0.000000000000002     0.000000000000007     0.000048846629726
1 64
    -0.005646649982881    -0.000863169226772    -0.000000000000000
     0.016358424631181     0.011405206540346    -0.000000000000000
     0.000000000000002     0.000000000000014     0.000025859980443
1 65
     0.026395207207996     0.023417781122248     0.000000000000000
    -0.147514065252251     0.028550045807645    -0.000000000000000
     0.000000000000002    -0.000000000000007    -0.000566046238589
1 66
     0.009048552229560     0.003922342515757     0.000000000000000
     0.029950203312530     0.001816373890392    -0.000000000000000
     0.000000000000002    -0.000000000000007    -0.000071833279009
1 67
    -0.001941623013627    -0.003829424887229    -0.000000000000000
     0.037565554068031    -0.005765751627294    -0.000000000000000
     0.000000000000004    -0.000000000000007     0.000045973298566
1 68
    -0.001876123701712     0.001478558110797    -0.000000000000000
     0.026887049728715    -0.007292496897396    -0.000000000000000
     0.000000000000004    -0.000000000000014     0.000060339954367
1 69
    -0.241863571566937     0.976446986370871    -0.000000000000000
     0.191848214950686    -1.638986550914023    -0.000000000000000
     0.000000000000002    -0.000000000000013     0.879655968084696
1 70
    -0.185135074490462    -0.144811362442038    -0.000000000000000
     0.046273714145436    -0.004126285276044    -0.000000000000000
     0.000000000000002    -0.000000000000014     0.082022111303290
1 71
    -0.470384070127835     0.199764777390989    -0.000000000000000
     0.025091070511270     0.001170177345273    -0.000000000000000
     0.000000000000002    -0.000000000000007     0.030391223682999
1 72
     0.890779979347055    -0.167578720164585     0.000000000000000
    -0.182325828811015     0.061494566596512    -0.000000000000000
     0.000000000000004    -0.000000000000007    -0.087573387105082
1 73
    -0.002449369617608     0.001516131359487     0.000000000000000
    -0.014458179647975     0.002385802507089    -0.000000000000000
     0.000000000000002    -0.000000000000014     0.000020113318122
1 74
     0.001088608718937     0.004896708248801     0.000000000000000
    -0.016753392784410     0.004190558445966    -0.000000000000000
     0.000000000000002    -0.000000000000014     0.000005746662321
1 75
     0.007970606189307    -0.000541257879849     0.000000000000000
    -0.007268667036951     0.002164323255844    -0.000000000000000
     0.000000000000004    -0.000000000000014     0.000020113318122
1 76
     0.001340451034512    -0.002863690846457     0.000000000000000
    -0.004598696266788     0.000828085848315    -0.000000000000000
     0.000000000000002    -0.000000000000014    -0.000020113318122
1 77
     0.002486435119699     0.000515870549641    -0.000000000000000
    -0.011091541419998     0.002796630637242    -0.000000000000000
     0.000000000000002    -0.000000000000014    -0.000040226636245
1 78
    -0.009360308644405     0.002403672423249     0.000000000000000
    -0.010819728409431     0.003454792605911    -0.000000000000000
     0.000000000000004    -0.000000000000014     0.000002873331160
1 79
    -0.001554720101393     0.000438693065838    -0.000000000000000
    -0.009903402989867     0.001426086204326    -0.000000000000000
     0.000000000000002    -0.000000000000007     0.000014366655802
1 80
     0.011093755550399    -0.001036818565336     0.000000000000000
    -0.009111713433345     0.000862479482162    -0.000000000000000
     0.000000000000002    -0.000000000000014     0.000011493324641
1 81
    -4.377785634318768    -1.945955615398340    -0.000000000000000
    -1.773527138233066    -0.068087734069991    -0.000000000000000
    -0.000000000000001    -0.000000000000029     0.657584822694891
1 82
     0.207122025682687     0.824773428576016     0.000000000000000
    -0.055304352714624     0.243335390709795    -0.000000000000000
    -0.000000000000000    -0.000000000000029    -0.076585768747912
1 83
     0.206911818588639    -0.832025065574094     0.000000000000000
     0.054605694921105     0.241289352744850    -0.000000000000000
    -0.000000000000000    -0.000000000000029    -0.077263874901754
1 84
    -4.386774780195663     1.947695155263567    -0.000000000000000
     1.772793230796947    -0.070114240031522    -0.000000000000000
    -0.000000000000004    -0.000000000000028     0.657541722727486
1 85
     0.000636714241393    -0.006511342449464    -0.000000000000000
     0.001437318844514     0.010797779627069    -0.000000000000000
    -0.000000000000000    -0.000000000000028    -0.000106313252933
1 86
     0.001169340428970    -0.001759849729410    -0.000000000000000
     0.000182061192015     0.003949870731851    -0.000000000000000
    -0.000000000000000    -0.000000000000028     0.000060339954367
1 87
    -0.002051804026691    -0.003030739479172    -0.000000000000000
     0.000868559184204    -0.002909773933659    -0.000000000000000
    -0.000000000000000    -0.000000000000028     0.000014366655802
1 88
     0.002496590051779     0.001073884067409     0.000000000000000
    -0.001402545752704     0.005246767484216    -0.000000000000000
    -0.000000000000000    -0.000000000000028    -0.000005746662321
1 89
     0.000225439492168     0.012471272086998    -0.000000000000000
     0.000130245037620     0.005642694773208    -0.000000000000000
    -0.000000000000000    -0.000000000000028     0.000011493324641
1 90
     0.000713383978594     0.006063509944745    -0.000000000000000
     0.000361444321192     0.003708727462246    -0.000000000000000
    -0.000000000000000    -0.000000000000028     0.000034479973924
1 91
    -0.000014216904911    -0.013915303428732    -0.000000000000000
    -0.000175442617901     0.001271338619240    -0.000000000000000
    -0.000000000000000    -0.000000000000028    -0.000011493324641
1 92
    -0.000878401624889    -0.004624556069075    -0.000000000000000
     0.000078231779845     0.003465680986508    -0.000000000000000
    -0.000000000000000    -0.000000000000028     0.000014366655802
1 93
     0.002033525148947    -0.009029765605220    -0.000000000000000
     0.008110087324520     0.007350549602656    -0.000000000000000
    -0.000000000000000    -0.000000000000028     0.000077579941329
1 94
    -0.002128981510496    -0.000660070585170    -0.000000000000000
     0.001075634037509    -0.007295261728906    -0.000000000000000
    -0.000000000000000    -0.000000000000028     0.000008619993481
1 95
    -0.001558782074224     0.004693609607202    -0.000000000000000
    -0.005454017904172    -0.010005201058895    -0.000000000000000
    -0.000000000000000    -0.000000000000028     0.000017239986962
1 96
     0.001220115089368     0.002369145654178     0.000000000000000
    -0.003689792263265     0.022020622362696    -0.000000000000000
    -0.000000000000000    -0.000000000000028    -0.000060339954367
1 97
    -0.032164224122437    -0.007479107476659    -0.000000000000000
     0.144224369047594    -0.032744637566136    -0.000000000000000
    -0.000000000000002    -0.000000000000007     0.000206879843545
1 98
    -0.000596094513075    -0.003045464130683    -0.000000000000000
    -0.037525244122889    -0.001898284780744    -0.000000000000000
    -0.000000000000002    -0.000000000000007     0.000031606642764
1 99
     0.005852287357494     0.002904310574777    -0.000000000000000
    -0.040325904077001    -0.007129774717949    -0.000000000000000
    -0.000000000000002    -0.000000000000014     0.000020113318122
1 100
    -0.002903802828173     0.004380837699152    -0.000000000000000
    -0.010271242330069     0.020905026240488    -0.000000000000000
    -0.000000000000002    -0.000000000000007    -0.000022986649283
1 101
    -0.243218239506360    -0.973179636974247    -0.000000000000000
    -0.191494079438974    -1.645158724321540    -0.000000000000000
    -0.000000000000002    -0.000000000000006     0.879477821552755
1 102
     0.884392527068963     0.166899862955059     0.000000000000000
     0.184989207336969     0.062596034152975    -0.000000000000000
    -0.000000000000002    -0.000000000000007    -0.087826240247193
1 103
    -0.476546082913758    -0.200382705008035    -0.000000000000000
    -0.026831353993821    -0.000674976794514    -0.000000000000000
    -0.000000000000002    -0.000000000000007     0.030316517072830
1 104
    -0.188902554292007     0.145995935269127    -0.000000000000000
    -0.049040316018011    -0.006086354641543    -0.000000000000000
    -0.000000000000002    -0.000000000000007     0.082168651192468
1 105
    -0.004257963020992     0.002062974451977    -0.000000000000000
     0.016776170890858     0.003034933528994    -0.000000000000000
    -0.000000000000002    -0.000000000000014     0.000068959947848
1 106
    -0.002105117420109     0.004045724940529    -0.000000000000000
     0.010385489368394     0.003439622261933    -0.000000000000000
    -0.000000000000004    -0.000000000000007    -0.000040226636245
1 107
     0.000894141769612     0.000133537356845    -0.000000000000000
     0.005557703120212     0.000824946935420    -0.000000000000000
    -0.000000000000002    -0.000000000000014     0.000037353305085
1 108
    -0.003017538067464    -0.003585198770715    -0.000000000000000
     0.009964442130619     0.000838324154351    -0.000000000000000
    -0.000000000000002    -0.000000000000014     0.000066086616688
1 109
     0.005938096533568     0.001215037623329    -0.000000000000000
     0.010997960210655     0.002987157061241    -0.000000000000000
    -0.000000000000002    -0.000000000000014     0.000005746662321
1 110
     0.006049800786444     0.002268611826590    -0.000000000000000
     0.011616500306990     0.002665883552844    -0.000000000000000
    -0.000000000000002    -0.000000000000007     0.000051719960886
1 111
    -0.008626107055048    -0.000179742297814    -0.000000000000000
     0.009546182985214     0.000750336291247    -0.000000000000000
    -0.000000000000002    -0.000000000000014     0.000002873331160
1 112
    -0.006154396586864    -0.000947455163033    -0.000000000000000
     0.008600033583662     0.000742653388638    -0.000000000000000
    -0.000000000000002    -0.000000000000007     0.000020113318122
1 113
     0.007239958826177    -0.003609570607701     0.000000000000000
     0.016009742320934    -0.008304672551574    -0.000000000000000
     0.000000000000000     0.000000000000028    -0.000146539889178
1 114
     0.001893894832852     0.008712931724332    -0.000000000000000
    -0.004322413248903     0.013893945166146    -0.000000000000000
     0.000000000000000     0.000000000000028     0.000112059915254
1 115
    -0.002418904821369    -0.000542781119655    -0.000000000000000
     0.001257362043481     0.018729668624594    -0.000000000000000
     0.000000000000000     0.000000000000028     0.000020113318122
1 116
     0.000093425375133    -0.010166610251517    -0.000000000000000
    -0.000811179259374    -0.006390699689106    -0.000000000000000
     0.000000000000000     0.000000000000000     0.000086199934810
1 117
    -2.365616307534981     0.004544839852254     0.000000000000000
     0.003016199192313   -12.770691443031172    -0.000000000000000
    -0.000000000000001     0.000000000000039    -5.548120884178007
1 118
    -0.321817921549353    -0.317247186620307    -0.000000000000000
    -0.260661933860255    -0.224918515189614    -0.000000000000000
     0.000000000000000     0.000000000000029     0.136103950403358
1 119
     0.502909302085704     0.004841363868977    -0.000000000000000
     0.000905745235870    -0.185804251125326    -0.000000000000000
     0.000000000000000     0.000000000000029     0.019291545410576
1 120
    -0.322376442813733     0.321599082763043    -0.000000000000000
     0.260369907884823    -0.220835058143408    -0.000000000000000
    -0.000000000000000     0.000000000000029     0.136167163688885
1 121
     0.000570199436272     0.001479065857403    -0.000000000000000
    -0.000711363860287    -0.003306667407571    -0.000000000000000
     0.000000000000000     0.000000000000028    -0.000140793226857
1 122
     0.000269105700110     0.002364068188150    -0.000000000000000
     0.001252937119912    -0.001121343259975    -0.000000000000000
     0.000000000000000     0.000000000000028     0.000077579941329
1 123
    -0.001595847576315     0.003949253085779    -0.000000000000000
     0.000807824286877     0.008877260050149    -0.000000000000000
     0.000000000000000     0.000000000000028     0.000002873331160
1 124
     0.000701705806703     0.000304647962388    -0.000000000000000
    -0.001108304693261     0.008312718298043    -0.000000000000000
     0.000000000000000     0.000000000000028     0.000086199934810
1 125
    -0.000187866243473    -0.005545100662083    -0.000000000000000
    -0.000170542963250     0.002089064968828    -0.000000000000000
     0.000000000000000     0.000000000000028     0.000054593292047
1 126
     0.000975381226249    -0.013127788445956    -0.000000000000000
     0.000414584331925     0.001781835762827    -0.000000000000000
     0.000000000000000     0.000000000000028     0.000037353305085
1 127
    -0.000102564814004     0.005904585257703    -0.000000000000000
     0.000164190392112     0.005621588312962    -0.000000000000000
     0.000000000000000     0.000000000000028     0.000037353305085
1 128
    -0.000719476937842     0.013153175776146    -0.000000000000000
    -0.000246452102992     0.006761490665014    -0.000000000000000
     0.000000000000000     0.000000000000028     0.000034479973924
2 1
     1.454354337929904    -0.293717701245186    -0.000000000000000
     0.291336085093199     0.081500823744878     0.000000000000000
     0.000000000000000    -0.000000000000002     0.180646330051070
2 2
    25.980293946606455     0.002151322361065    -0.000000000000000
     0.005060091594043    24.480986876311242     0.000000000000000
     0.000000000000009    -0.000000000000022    11.412805282285021
2 3
     1.454562514037536     0.293139885609855    -0.000000000000000
    -0.291874541241552     0.081875963819576     0.000000000000000
     0.000000000000001    -0.000000000000004     0.180631963395268
2 4
     0.117502719093477    -0.000255396541803    -0.000000000000000
    -0.000244823443991     0.141653258639546     0.000000000000000
     0.000000000000000    -0.000000000000004     0.009490612822629
2 5
     0.001050019977034     0.013089707450653     0.000000000000000
    -0.001057667804286    -0.012600920826451     0.000000000000000
    -0.000000000000000    -0.000000000000004    -0.000002873331160
2 6
    -0.002281813238294    -0.005976685275471     0.000000000000000
    -0.001136908115892     0.002798890313112     0.000000000000000
    -0.000000000000000    -0.000000000000002     0.000189639856583
2 7
     0.001789806779036    -0.006727134756156    -0.000000000000000
     0.001517125265691    -0.007899398354255     0.000000000000000
    -0.000000000000000    -0.000000000000002    -0.000014366655802
2 8
    -0.002990627497453    -0.004741845534587     0.000000000000000
     0.000064664096665    -0.011095115337781     0.000000000000000
    -0.000000000000000    -0.000000000000002     0.000034479973924
2 9
     0.000557505771172    -0.003478571983880     0.000000000000000
     0.000351618638363    -0.007147676489788     0.000000000000000
    -0.000000000000000    -0.000000000000002     0.000054593292047
2 10
    -0.000404674043374     0.002152845600883     0.000000000000000
    -0.000104816258421    -0.007309199825817     0.000000000000000
    -0.000000000000000    -0.000000000000002     0.000008619993481
2 11
     0.000518917029269     0.003018045814067     0.000000000000000
    -0.000253214098874    -0.007179171868166     0.000000000000000
    -0.000000000000000    -0.000000000000004     0.000054593292047
2 12
    -0.000663624811404    -0.002577321761812     0.000000000000000
    -0.000029938829301    -0.007086260158786     0.000000000000000
    -0.000000000000000    -0.000000000000004     0.000014366655802
2 13
     0.001754264516757     0.002943407063282    -0.000000000000000
    -0.004322992308743    -0.007554011273564     0.000000000000000
    -0.000000000000000    -0.000000000000004     0.000002873331160
2 14
    -0.001153092537643    -0.002788036602465    -0.000000000000000
    -0.004711612184062     0.003014428365277     0.000000000000000
    -0.000000000000000    -0.000000000000002     0.000218373168186
2 15
     0.000215792306692    -0.003025154266525     0.000000000000000
     0.011310822801862    -0.012669513004877     0.000000000000000
    -0.000000000000000    -0.000000000000002     0.000011493324641
2 16
    -0.003107916962973     0.001634436318217     0.000000000000000
    -0.005778000920322    -0.011322241311688     0.000000000000000
    -0.000000000000000    -0.000000000000002     0.000028733311603
2 17
    -0.004838317389343    -0.019743726695834     0.000000000000000
    -0.019567977240573    -0.077528607457826     0.000000000000000
     0.000000000000000     0.000000000000002     0.000255726473271
2 18
    -0.003938590407087     0.008767260610956     0.000000000000000