 128  128
1 1
    40.345621944103904    10.732555621177143     3.688128859910345
    10.721607535439293    29.686611317012257    -3.949666403954343
     3.688419499999993    -3.940624499999998    10.420631999999994
1 2
     0.292067672742928    -0.204744062728859     0.200128952067104
     0.297100246698426     0.196598327018376     0.253479823233543
    -0.022595000000000    -0.236301499999996     0.031317999999999
1 3
    -0.049674264322730    -0.168686907564240     0.122859509349514
    -0.167980944817947    -0.032171938569076    -0.037269246828856
     0.123335000000000    -0.035124000000000     0.094166999999995
1 4
     0.292286012897253     0.302971809802636    -0.022870927886491
    -0.211742461008972     0.196400708947836    -0.234452656136698
     0.203467000000001     0.255518500000001     0.029831999999999
1 5
     0.188755553213942     0.167569387146790    -0.054938884857444
    -0.067773587176857     0.139960771682687    -0.184330251560094
    -0.047086000000000    -0.292294500000001     0.393629000000001
1 6
     0.030291706876571     0.027318184042314    -0.113619855445393
    -0.202673265061937    -0.197532896050827    -0.015084602671990
     0.226028499999999     0.320402999999999    -0.084394499999998
1 7
    -0.157129334120411    -0.067815362908519    -0.052259186081016
     0.054347496704717    -0.064776550764528     0.110157300397646
    -0.020622000000000     0.074605499999997    -0.077033000000000
1 8
    -0.066470963604262    -0.146975226067706     0.197322042952444
     0.189865396238632     0.059528116831310     0.034345986426104
    -0.028914500000000    -0.080848000000000    -0.034663500000001
1 9
    -0.027821840955132    -0.002278003756512    -0.023317645801146
    -0.000838584306540    -0.116697026755529     0.002254924112677
    -0.024583999999999     0.002221500000001     0.027731000000003
1 10
     0.001948118345182    -0.042916200122132    -0.005123779979397
     0.088077686936384    -0.022020722990660     0.026925074654851
    -0.024792499999999    -0.036602000000002    -0.008647000000003
1 11
     0.023692585877526     0.001232999706002     0.035143422260489
     0.003887510579146     0.006399293225365     0.017997433553695
     0.034762000000001     0.014695500000002    -0.014429999999997
1 12
     0.000946810936131     0.092329221387898    -0.026115270860476
    -0.049609209637593    -0.020382229986098    -0.031939547124077
    -0.001936500000000     0.019990500000002    -0.007774999999999
1 13
     0.192343621663927    -0.067612255134898    -0.041399856469822
     0.163776342544174     0.133291458935227    -0.286405409109513
    -0.052700000000000    -0.184813500000001     0.393079500000002
1 14
    -0.065138034474227     0.178352704291593    -0.016737956941751
    -0.144960795927707     0.057445258644307    -0.082374316610680
     0.198504500000000     0.039182500000003    -0.037079500000001
1 15
    -0.154119632019905     0.049266781589496    -0.009482541851567
    -0.068934844586136    -0.066958380714217     0.074711885223422
    -0.055648000000000     0.110153000000004    -0.077814500000002
1 16
     0.035257473370200    -0.209674780604437     0.233100330249922
     0.034873846596010    -0.200689776065180     0.317039347876398
    -0.119935500000000    -0.013548000000000    -0.082712000000001
1 17
     0.235084799269149    -0.893295365323635     0.313429073054851
    -1.704816661292266    -0.735880392455655     0.296816190875966
     0.654230500000000    -0.044673000000000    -0.043134500000001
1 18
    -0.436458978379225     0.120530129088867    -0.246329679878009
    -0.298036157538578    -0.082398145087654    -0.028915971631803
     0.380653000000000     0.064888000000000     0.023501500000002
1 19
    -0.161303191124628     0.020881126194542    -0.029521495757221
     0.053537989636255     0.005014557391047     0.037402607612532
    -0.116391000000000     0.012058000000000    -0.040447000000000
1 20
     0.056799340574519    -0.356090531129976     0.204664553024970
     0.049845712408172     0.114033598923231    -0.072609270891520
    -0.007702000000000    -0.209493500000000     0.039856999999998
1 21
     0.041047200529122    -0.039093072669306    -0.015328349477016
    -0.008896841904231    -0.089707081177566     0.048713090172265
    -0.045112000000000     0.139424500000000    -0.071904500000002
1 22
     0.024832686930907    -0.086347028686383     0.043132231987513
    -0.041511820019336     0.016547998584241    -0.009339915877632
     0.022976500000000    -0.002761000000000    -0.001202999999997
1 23
    -0.019595345496848     0.025291788499791     0.022667480853670
    -0.058682395056115     0.053971263924560    -0.030578383528630
     0.040505000000000    -0.038741500000000     0.022304999999999
1 24
    -0.019470359062666     0.135139620144392    -0.032587460329406
    -0.015856092437732    -0.097711227878884    -0.027593699791865
    -0.001553500000000    -0.016687000000000     0.027846500000003
1 25
    -0.000629918163519     0.032219359562522    -0.005904795996583
    -0.039098166137470     0.031428237416597    -0.028952503628938
    -0.043687500000000    -0.015743000000000     0.000927999999998
1 26
     0.015752525592225     0.026669698620487     0.008016806448497
    -0.003530739238698    -0.035316383184675     0.016120626648493
     0.007908000000000     0.024156500000000    -0.005775499999999
1 27
     0.003544012703977    -0.003784905686216    -0.005302626226034
    -0.038790551875231    -0.044044217905131    -0.007261839091245
     0.040949500000000     0.006188500000000     0.006255999999997
1 28
     0.028059737555709    -0.015348887104566     0.015305495207856
    -0.032376455147715    -0.041931635532161     0.017784586861524
     0.004461500000000    -0.004239500000000     0.007839999999998
1 29
     0.299777952615463    -0.020386024687933     0.053636933993763
     0.536421714555369     0.045075596517683     0.146946806636103
    -0.389606000000000    -0.097889500000000    -0.152096000000000
1 30
     0.088602611002634    -0.024699882621043     0.027375139079334
     0.054324280120105     0.029661028429294     0.014466480826095
     0.150532500000000    -0.044725500000000     0.015711499999998
1 31
    -0.027199966288126     0.025364553797533    -0.006197186350996
    -0.053758798897606     0.006066873908801    -0.000500411950550
     0.091258500000000     0.011026500000000     0.023716500000003
1 32
    -0.143740131739957    -0.063000678278037    -0.032737707207932
    -0.372629716326851    -0.352001685668374     0.113291527461587
     0.215148000000000     0.055343500000000     0.570263499999999
1 33
     0.152721474998059    -0.045864219001709     0.157515080700092
    -0.200966171861085    -0.018286318761687     0.234307624234146
     0.326124999999998    -0.363392999999999    -0.183339999999998
1 34
    -0.016399958470578     0.113858578696968    -0.049102042482588
     0.057397186534933     0.082902738818341    -0.053709122713912
    -0.062767000000001     0.125579500000001    -0.042809000000002
1 35
    -0.034352847640827    -0.137458078977890    -0.024777251948394
    -0.066875742654861    -0.119944538614029     0.008704874196481
    -0.021811499999998    -0.042932500000003    -0.008358500000000
1 36
   -10.255995822291842    -7.022293270216919    -0.146761397567769
    -7.271093604614018    -8.439681023419187    -0.084665390664697
     0.674343000000000    -0.390748000000002    -4.714003999999999
1 37
    -0.043367372310644    -0.288705188617515     0.064783001206811
    -0.059070039250043     0.121117314587379    -0.062466840902428
    -0.039869499999998    -0.084508999999997     0.069535000000002
1 38
     0.064880333404805     0.045202201928529    -0.010767638773716
     0.025793508842891    -0.094745040117792     0.039952559741843
    -0.065074500000001     0.073333500000000    -0.022345999999999
1 39
     0.006776903415321     0.075399706135816     0.015779607356479
    -0.016932312314170    -0.013070144118086    -0.003096291189297
     0.013137499999999     0.023507500000001     0.017475500000000
1 40
     0.073513745369289     0.285410009599648     0.011405549811411
     0.038724882885758    -0.308367923055012    -0.024184355542703
    -0.015856499999998     0.168970500000000     0.027335500000000
1 41
    -0.004502452125368     0.028884840808540     0.028645808953076
    -0.019394135867075    -0.104422749059106     0.040325715288940
     0.014392500000003     0.089570500000001    -0.018762500000001
1 42
     0.011335501723606    -0.073907284192949     0.024776271311551
     0.016269900722616    -0.029551233297516    -0.010990330168478
    -0.010468500000002    -0.004291500000001     0.016117000000001
1 43
    -0.027359794368809    -0.043642831037053    -0.012006917795205
    -0.003174225135783     0.029123449110450    -0.009758365922685
    -0.001114500000000    -0.036213499999999     0.005351500000000
1 44
    -0.002221820506050     0.088793551102855    -0.029840230553130
     0.063408281086381     0.001997148631588     0.015849174920523
    -0.008779499999999    -0.019102999999998    -0.020390499999998
1 45
    -0.013322370013319    -0.064384729369896     0.023878231104426
     0.033845100617437    -0.021656059933879     0.008406568760668
     0.007835500000002    -0.044012000000002     0.005558999999998
1 46
    -0.032411897485647    -0.009249723004272    -0.028106850116395
    -0.047497854555800    -0.011245130788360     0.029532006147274
     0.020800500000000    -0.026842000000002    -0.021130500000002
1 47
     0.043584892347045     0.116085293903525    -0.026440203743185
     0.096167616912917     0.024612507284081    -0.004924057600074
    -0.022268000000000     0.019795500000001     0.005410999999999
1 48
     0.011216832863504    -0.064606535829088     0.005093921778269
    -0.010529704453954    -0.081431538455706    -0.065015493708081
     0.031565000000001     0.051829500000000     0.029771999999998
1 49
   -14.248431665622766    -9.743599374278810    -0.920163843380626
   -11.150150594261987    -9.038635789526262     0.717582827343833
     1.919082499999998    -1.438833000000002    -3.403477499999999
1 50
    -0.187774562264339     0.067946636022413     0.242763284656665
    -0.206762028349071    -0.003680552295671    -0.090342764418877
    -0.135408999999999     0.161622500000000     0.323041000000000
1 51
    -0.005591420888045     0.088287876571984     0.033016715220760
    -0.012618995851913     0.078523882369090    -0.093826498368964
    -0.079706999999999    -0.015579500000001     0.152575500000000
1 52
    -1.085455731388787     0.820744265979180     0.630616964291835
     0.508643743090575     0.040170768093760     0.112906248049798
    -0.122917500000000    -0.409326000000000     0.429081500000000
1 53
    -0.028486068535524     0.036694674052846     0.080968963008499
     0.188659150026239    -0.108069583416262    -0.166805738217919
    -0.360778000000003    -0.014150000000001     0.062302500000000
1 54
     0.068997750470029     0.054800518653819    -0.106926526124416
     0.129037345015191     0.042384872516340     0.008096760209171
    -0.078166999999997    -0.092017999999999    -0.017702500000000
1 55
     0.134375784145889     0.001298965115623    -0.090398947857343
    -0.097397953376499    -0.062467025070184     0.134363021096533
     0.083742500000000    -0.023766999999999    -0.058266500000000
1 56
    -0.272811717077614    -0.055374549129499     0.143976414357751
    -0.050347287180571     0.078850938522627     0.003397328154662
     0.073786500000001     0.100895999999999    -0.043119000000000
1 57
     0.003262460715263    -0.022289673574708     0.029044378730008
    -0.000997008054216     0.000967643923745     0.102744154432188
    -0.023501999999997    -0.000960499999998    -0.029352500000000
1 58
     0.033187455452191     0.009999257729143     0.035987656539190
     0.015753189531036     0.029838938086419     0.013204224140421
    -0.015698000000000    -0.006132999999998     0.026199500000000
1 59
    -0.049172986344072     0.026643868193275     0.002446400116684
    -0.020924438158718     0.028976105428145    -0.051072331493542
     0.006533500000000    -0.002687999999999     0.017249000000000
1 60
     0.003442385030451    -0.029495061094647    -0.046992723862017
     0.101908272947451    -0.019785281772154    -0.041151267806688
     0.001737499999997     0.030538499999999    -0.027548000000000
1 61
    -0.054267234683787     0.097720736481439    -0.001724772974750
     0.133408297640173     0.020298508653353    -0.020804114634648
    -0.131439499999999    -0.052075000000002     0.067661500000000
1 62
    -0.012019403164017     0.006386327906528    -0.156181844469292
     0.014207082796261     0.049022957542619    -0.041491367771403
    -0.042600000000000    -0.003817500000000    -0.044182500000000
1 63
     0.136430836974083     0.017859265259418    -0.161623108355885
     0.136082298298267     0.070990063310387    -0.129466371952984
    -0.014050000000001    -0.086647500000002    -0.001787500000000
1 64
    -0.317557554107411    -0.138797543427081     0.190418368103853
    -0.328879498844532    -0.002960931307284     0.110438495903354
     0.064767500000002     0.168080499999999    -0.234580000000000
1 65
    -3.574725224978701     0.001627469856866     1.144344098255498
     0.332819437484321    -0.956640894726981    -1.684672183858060
    -0.328396499999998     1.686992499999999     1.254540999999999
1 66
     0.115281789800076    -0.343193073205930    -0.060795632432617
     0.130071488275297    -0.123795873826142    -0.053053780952188
     0.043353499999998    -0.150274500000002    -0.118222000000001
1 67
    -0.131720798652455    -0.103331975615799    -0.161580107633727
     0.045922234107728    -0.037273193579102    -0.051109152148375
    -0.133739499999999     0.000740999999998    -0.159955500000000
1 68
    -3.906180360064305     0.509596352411964     0.084895109891056
     1.797624905144258     0.716329645173806     0.754092571401628
    -1.671652000000000     0.987506499999999     1.083762000000000
1 69
    -0.098286473388079    -0.007195538437123    -0.061926710822007
     0.020764623109963     0.129651420984683     0.254331778948055
     0.112420500000002    -0.150349000000002    -0.376260500000000
1 70
    -0.029205449576249    -0.024305660052950     0.033342912046836
    -0.036258502489072     0.029974663319838     0.029065020119080
     0.049029500000001    -0.000220499999998     0.047510500000000
1 71
     0.088318923471409    -0.051486235517767     0.142411457178322
    -0.029367153443086     0.019378688488612    -0.097084984683823
    -0.023372499999999     0.087237000000002     0.090027500000001
1 72
     0.192332095028156     0.014179012961622    -0.135935813200252
    -0.173805268768629    -0.083445806589762    -0.168674694896926
     0.210077999999999    -0.180192500000004    -0.146149499999999
1 73
     0.009960502932526     0.015447020056748     0.050596602589946
    -0.066077902436607    -0.012797888178107    -0.037196586756723
     0.035805000000000     0.000391499999999     0.012508000000000
1 74
    -0.052751053010076     0.026918714540271    -0.009554610147444
    -0.066925763191897    -0.007939951906578    -0.047269026149959
    -0.003970499999999     0.015684000000000     0.005895000000000
1 75
     0.013905468928736    -0.048386868373815    -0.082006993084129
     0.019260673856646    -0.034424236958323    -0.016314723685867
    -0.018609500000000     0.019012500000002    -0.008386500000000
1 76
     0.038930465609011     0.027414145674781     0.044840490702031
    -0.051851987654487     0.107483607100091     0.107187490847128
     0.026316500000000    -0.058873000000002    -0.011585000000000
1 77
    -0.050873091826993     0.037701994464915    -0.096310805503494
    -0.011200197154990     0.330037374056482     0.166234631284381
    -0.173171999999999    -0.085907000000002    -0.235331500000000
1 78
     0.186519842849508    -0.051343788858770    -0.022761122017121
     0.086246066482602    -0.115012651387207    -0.018570601596246
     0.077463000000002     0.081647499999999     0.026483000000000
1 79
     0.037653124012560    -0.049021461700779     0.091531200542882
    -0.048029112078426    -0.027798879770115    -0.036690288855485
     0.057881999999998     0.082229999999999     0.083797000000000
1 80
    -0.002128621702174     0.031598932560796    -0.177076754908703
    -0.142726196354832    -0.008530391488713    -0.304054778441127
     0.092753000000002    -0.188994999999998     0.015705000000000
1 81
    -0.197365690831081     0.884431159412869    -0.255229635835495
     1.721834814852896    -2.275692521212352     0.686703113587946
    -1.099838999999999     0.676653500000000    -0.167946500000000
1 82
     0.762127590840302    -0.389348254552559    -0.338529624930098
     0.115797373858131    -0.229182460039188    -0.056887756646418
    -0.175577000000002    -0.067927499999996    -0.096985000000000
1 83
     0.069380293061259    -0.077202847568257    -0.019726550861477
    -0.021877842646772     0.177736352544183     0.061231026711234
     0.078718999999998    -0.188500499999996    -0.034559500000000
1 84
    -0.151326058373623     0.062641871499018    -0.091444262511696
     0.114980719512994     0.067960485667579    -0.018101657845192
    -0.149105499999999    -0.067853499999998    -0.037126000000000
1 85
    -0.073311216389412    -0.034698490869295    -0.029864920446746
    -0.103546061827215    -0.018426815414328     0.034885074804710
     0.082881999999998     0.004783500000002     0.001635000000000
1 86
    -0.104385871971219     0.007341950590032    -0.007008241708066
     0.148715205894897     0.041596806739561     0.025695808041497
    -0.118272500000000    -0.017206000000002    -0.002085000000000
1 87
     0.079074033311243     0.016549626455222     0.039603947146430
     0.052963672285618     0.002360350371963    -0.016994778935033
    -0.007525500000000    -0.012451999999996     0.014387000000000
1 88
     0.123012176727452     0.038231033946665    -0.004874120053651
    -0.074278187726821    -0.061734377122070    -0.032015300142370
     0.037018999999999     0.006925000000003     0.012055000000000
1 89
     0.019969760806294     0.049565982725401     0.001604956969724
     0.042632909657682     0.045443671621096     0.000646027739468
     0.017661000000002     0.003683000000002    -0.009880500000000
1 90
     0.042735432316701    -0.078473760872281     0.015778868837000
     0.001085053746641    -0.120497913364959     0.005407036528970
     0.022904500000001     0.006395500000004    -0.000549500000000
1 91
    -0.020351785152332     0.024906112994603     0.004589916688390
    -0.014865304591494     0.033352580762109    -0.008716599719944
    -0.009260000000001    -0.039381500000005     0.008385500000000
1 92
    -0.042568539352851     0.019272942660087    -0.012583591452387
     0.036217000573697    -0.014814832674896     0.002486776871464
    -0.026999499999999     0.025617499999996     0.001246000000000
1 93
    -0.243110742242347     0.163924706888779    -0.215562978393877
    -0.519039367470503    -0.146869532231361    -0.471271221666738
     0.171145000000001    -0.094948000000002    -0.308580500000000
1 94
    -0.128520787047475     0.138843525267667    -0.013892854427981
     0.077542389334251     0.152880224964454     0.053574191420941
    -0.088587000000000    -0.093059499999995     0.002094000000000
1 95
    -0.008286257270223     0.100621683979088    -0.011027237597477
     0.052979378281057    -0.163416970029115    -0.009827565679685
    -0.126009999999999     0.171818500000001     0.004541500000000
1 96
     0.250012022521941     0.116678987302353     0.003516976319323
     0.260021661743039     0.178030002772379    -0.008787376141842
     0.071214999999999    -0.024215000000005    -0.042945000000000
1 97
    -0.174217224957523     0.056271613104371     0.323269756531579
     0.247117481318043    -0.321711813893524     0.029259140472925
    -0.198210499999999     0.067483500000002     0.440329999999999
1 98
     0.098101746049791     0.030037769879364     0.016454667073710
     0.043445945479711     0.066086253879752    -0.034365669410178
    -0.041328500000001    -0.053045000000004    -0.039245500000000
1 99
     0.118800425315445    -0.070172864010012    -0.019468951317085
    -0.066355324993491    -0.035801783963126     0.056426967297294
     0.082628500000000     0.008687500000001    -0.059183500000001
1 100
     0.051552594919835    -0.474214072751360     0.087982125135033
    -0.386319841349507    -0.011314108107150     0.162589775423292
     0.493659500000000    -0.024519499999997     0.653811500000000
1 101
     0.032767501361793    -0.019032535087593    -0.050355185043715
    -0.045089839248303     0.086700211345328     0.020539032045641
     0.040457500000000    -0.070418500000002    -0.022316500000001
1 102
    -0.042156473853891     0.079889926804316    -0.009594060459505
     0.038410717863368     0.034692379384269     0.005951969214880
    -0.043467499999999    -0.007212000000003     0.005368000000001
1 103
    -0.038909802089662     0.007555290247475     0.065668362535092
     0.048338185308654    -0.019267470884853    -0.031765673753429
    -0.022185500000001     0.037436499999998     0.007090499999999
1 104
     0.011318692299123    -0.086299168652423     0.011523252140602
     0.051079298831195     0.058166010017153    -0.086751452791247
    -0.000002000000000     0.021400999999997     0.020879499999999
1 105
    -0.029153084973577     0.064285249714966    -0.021238353349778
     0.021345573997356     0.088760820774557    -0.070318193570484
     0.004193000000001     0.002907000000000     0.003910499999998
1 106
    -0.007928414482389    -0.025302344571643     0.031067622947343
     0.028484452816859    -0.003152799099712    -0.003110454395988
    -0.023873499999999     0.019226499999995    -0.003761499999998
1 107
     0.027892985702408    -0.032663892353242    -0.013746588206629
     0.016527253736066     0.061253788906974    -0.033141543181527
    -0.009947500000000    -0.033153500000004     0.006080999999998
1 108
    -0.038511485463073    -0.029351063754232     0.030780810192209
    -0.001812387101230    -0.009169931104504     0.046067218886205
     0.006460499999999     0.010603500000002    -0.006361000000000
1 109
    -0.148350679990851    -0.037569584344223     0.022733930449067
    -0.307883680661041    -0.064017057572255     0.128563390344882
     0.274059000000000     0.145974499999994    -0.223665000000000
1 110
    -0.001729389648283    -0.095240423372544     0.059148268540754
    -0.077170416429387     0.002764869660346     0.024597137840820
     0.006526000000000    -0.142968999999994     0.045801000000001
1 111
    -0.105740895057991     0.078476386258554     0.069902648544475
    -0.069718035341824     0.084911379652165     0.064633258573746
    -0.067381999999999    -0.007869500000005    -0.001518000000001
1 112
     0.304144099245384    -0.807374470149632     0.340198649058125
    -0.552510982863136    -1.456699211292993     0.208954814619130
    -0.157858000000000     0.962438499999998     0.800548000000001
1 113
     0.109868752490214     1.062895925462172    -0.044998420102285
     0.204188647498194     0.988491270761847     0.003233740439309
     0.583349499999999    -0.204491500000000    -0.329423999999999
1 114
     0.013021747032569     0.337683523123766    -0.075518622856215
     0.014438187561107    -0.220608919487736     0.159701118613567
     0.001656000000001     0.287816000000000    -0.087755499999998
1 115
    -0.147330691670403     0.095774294141283     0.143060191030791
    -0.103274554387351    -0.291399818293846     0.102975010553266
    -0.073869000000000     0.069577500000000     0.000511500000000
1 116
    -8.069499745977650     5.361516016234566    -5.342281617766696
     6.753053505419045    -7.472420427574090     2.452262105075520
    -4.915633999999995     2.560604999999997    -5.956570999999997
1 117
     0.004564792742568     0.084283229538510     0.143687400902211
    -0.040396953582512    -0.153484462452177    -0.030301809799443
     0.047334500000000     0.009879000000000     0.142158500000001
1 118
    -0.012714444998636    -0.037483279805915     0.085179447268278
    -0.017278567034734     0.083382475164252    -0.162167512490981
    -0.019738500000001    -0.090783000000000     0.063522000000001
1 119
     0.009381956806201     0.042340735846590    -0.239060703399408
     0.029835446750456     0.089905464397375     0.015345274974296
    -0.028806500000000    -0.058161500000000    -0.013708500000000
1 120
    -0.025224979583869    -0.072998764243572    -0.049089444963494
     0.011395912485647     0.075712787807316     0.313675292567202
    -0.016337499999999     0.349269000000000    -0.128451500000001
1 121
    -0.009069475396845     0.047463452372062    -0.117861516531241
     0.007706686476451     0.185872600044826    -0.102367464999267
    -0.028460000000001    -0.020092000000000     0.019757999999999
1 122
     0.022232864265473    -0.009647663857085    -0.035683243229170
     0.019090692312653     0.008497202138618     0.105123292187548
    -0.004051500000001     0.013177500000000    -0.054937999999998
1 123
     0.013470825670750    -0.012886260223620     0.087455879384577
    -0.033779807550871     0.020020411682614     0.068499677001830
     0.019559500000000    -0.037983000000000     0.017397999999998
1 124
    -0.009828309707240    -0.110145032991472     0.005849966432972
    -0.055440296279028    -0.055476847942390    -0.063509066855367
     0.022557000000001     0.030074500000000     0.028376000000000
1 125
     0.109165729355693    -0.290889602276743     0.140184792265627
     0.088767572885656    -0.532156480883979    -0.002490243498865
    -0.131908999999998     0.276489000000000     0.219469999999999
1 126
     0.006244845062203    -0.121007846629056     0.139381254564116
     0.027893342229305     0.249049994086590    -0.074216014957558
    -0.032034999999999    -0.296162500000000     0.098367000000001
1 127
     0.006639662350375    -0.016517094586945    -0.126993131923797
     0.006359951727253    -0.046318446753031    -0.009143303624408
    -0.020237000000002    -0.191513000000000    -0.018800500000001
1 128
    -0.213104345073630     0.203527513684496     0.158557554816972
    -0.258942456644270     0.115220086725836     0.563786063412052
     0.154484500000001     0.217935000000000    -0.288715000000000
2 1
     0.292286012897253     0.302971809802636    -0.022870927886491
    -0.211742461008972     0.196400708947836    -0.234452656136698
     0.203467000000001     0.255518500000001     0.029831999999999
2 2
    40.345621944103904    10.732555621177143     3.688128859910345
    10.721607535439293    29.686611317012257    -3.949666403954343
     3.688419499999993    -3.940624499999998    10.420631999999994
2 3
     0.292067672742928    -0.204744062728859     0.200128952067104
     0.297100246698426     0.196598327018376     0.253479823233543
    -0.022595000000000    -0.236301499999996     0.031317999999999
2 4
    -0.049674264322730    -0.168686907564240     0.122859509349514
    -0.167980944817947    -0.032171938569076    -0.037269246828856
     0.123335000000000    -0.035124000000000     0.094166999999995
2 5
    -0.066470963604262    -0.146975226067706     0.197322042952444
     0.189865396238632     0.059528116831310     0.034345986426104
    -0.028914500000000    -0.080848000000000    -0.034663500000001
2 6
     0.188755553213942     0.167569387146790    -0.054938884857444
    -0.067773587176857     0.139960771682687    -0.184330251560094
    -0.047086000000000    -0.292294500000001     0.393629000000001
2 7
     0.030291706876571     0.027318184042314    -0.113619855445393
    -0.202673265061937    -0.197532896050827    -0.015084602671990
     0.226028499999999     0.320402999999999    -0.084394499999998
2 8
    -0.157129334120411    -0.067815362908519    -0.052259186081016
     0.054347496704717    -0.064776550764528     0.110157300397646
    -0.020622000000000     0.074605499999997    -0.077033000000000
2 9
     0.000946810936131     0.092329221387898    -0.026115270860476
    -0.049609209637593    -0.020382229986098    -0.031939547124077
    -0.001936500000000     0.019990500000002    -0.007774999999999
2 10
    -0.027821840955132    -0.002278003756512    -0.023317645801146
    -0.000838584306540    -0.116697026755529     0.002254924112677
    -0.024583999999999     0.002221500000001     0.027731000000003
2 11
     0.001948118345182    -0.042916200122132    -0.005123779979397
     0.088077686936384    -0.022020722990660     0.026925074654851
    -0.024792499999999    -0.036602000000002    -0.008647000000003
2 12
     0.023692585877526     0.001232999706002     0.035143422260489
     0.003887510579146     0.006399293225365     0.017997433553695
     0.034762000000001     0.014695500000002    -0.014429999999997
2 13
     0.035257473370200    -0.209674780604437     0.233100330249922
     0.034873846596010    -0.200689776065180     0.317039347876398
    -0.119935500000000    -0.013548000000000    -0.082712000000001
2 14
     0.192343621663927    -0.067612255134898    -0.041399856469822
     0.163776342544174     0.133291458935227    -0.286405409109513
    -0.052700000000000    -0.184813500000001     0.393079500000002
2 15
    -0.065138034474227     0.178352704291593    -0.016737956941751
    -0.144960795927707     0.057445258644307    -0.082374316610680
     0.198504500000000     0.039182500000003    -0.037079500000001
2 16
    -0.154119632019905     0.049266781589496    -0.009482541851567
    -0.068934844586136    -0.066958380714217     0.074711885223422
    -0.055648000000000     0.110153000000004    -0.077814500000002
2 17
     0.056799340574519    -0.356090531129976     0.204664553024970
     0.049845712408172     0.114033598923231    -0.072609270891520
    -0.007702000000000    -0.209493500000000     0.039856999999998
2 18
     0.235084799269149    -0.893295365323635     0.313429073054851