 128  128
1 1
    36.159412168038301    -0.838922416108005    -0.000000000000000
    -0.846092499999998    37.638525999999999    -0.000000000000000
    -0.000000000000014    -0.000000000000007    13.522099542915395
1 2
    -0.947487347410137    -0.229055440901606    -0.000000000000000
    -0.259045999999998    -0.207892499999998    -0.000000000000000
    -0.000000000000007    -0.000000000000004    -0.066487725053176
1 3
    -0.392739640707430    -0.284539262188831    -0.000000000000000
    -0.269431500000000    -0.297286000000001    -0.000000000000000
    -0.000000000000007    -0.000000000000007    -0.008312226588350
1 4
    -0.945890090484785    -0.272865988799925    -0.000000000000000
    -0.235056500000001    -0.184033500000000    -0.000000000000000
    -0.000000000000007    -0.000000000000004    -0.066333047697568
1 5
    -0.105710700424131    -0.076632938942668    -0.000000000000000
     0.091112500000001    -0.386140500000000    -0.000000000000000
    -0.000000000000007    -0.000000000000007     0.003039746292827
1 6
     0.096056877544832    -0.079423461567234    -0.000000000000000
     0.093193999999999     0.061768000000001    -0.000000000000000
    -0.000000000000007    -0.000000000000004     0.003688718676141
1 7
     0.056962257263713    -0.361323887449194    -0.000000000000000
     0.185008000000000    -0.419972499999998    -0.000000000000000
    -0.000000000000007    -0.000000000000004     0.001553498658502
1 8
     0.014607898015283    -0.285540391885631    -0.000000000000000
    -0.246607000000003     0.056882500000002    -0.000000000000000
    -0.000000000000007    -0.000000000000004     0.014593472246537
1 9
    -0.451592920731767    -0.337144077166167    -0.000000000000000
    -0.324190000000003    -0.335949499999998    -0.000000000000000
    -0.000000000000007    -0.000000000000007     0.003971172977687
1 10
    -0.541562626347416    -0.137307466021484    -0.000000000000000
    -0.178229999999997     0.084161500000000    -0.000000000000000
    -0.000000000000007    -0.000000000000007    -0.012471702433734
1 11
    -0.727501231443635    -0.198461321864228    -0.000000000000000
    -0.208818500000000    -0.684174500000001    -0.000000000000000
    -0.000000000000007    -0.000000000000004     0.000063888472969
1 12
    -0.540395652943270    -0.169023052567702    -0.000000000000000
    -0.118240500000001     0.058132000000001    -0.000000000000000
    -0.000000000000007    -0.000000000000007    -0.012454889677690
1 13
    -0.044796508963351     0.101819946375203    -0.000000000000000
    -0.094220500000000    -0.415963999999999    -0.000000000000000
    -0.000000000000007    -0.000000000000007     0.002992670575903
1 14
     0.014606886773169    -0.234290641346391    -0.000000000000000
    -0.294531000000001     0.061474000000000    -0.000000000000000
    -0.000000000000007    -0.000000000000007     0.014445519993347
1 15
    -0.005096660274619     0.207457331745781    -0.000000000000000
    -0.376625000000001    -0.387334999999998    -0.000000000000000
    -0.000000000000007    -0.000000000000007     0.001563586312129
1 16
     0.093500963091637     0.109697522474267    -0.000000000000000
    -0.097789000000001     0.061294000000000    -0.000000000000000
    -0.000000000000014    -0.000000000000007     0.003745882046692
1 17
     0.047013657307021    -1.886013572791789    -0.000000000000000
     1.367808499999999    -0.278576500000000    -0.000000000000000
     0.000000000000007    -0.000000000000004     0.390829327008074
1 18
     0.151979072290205    -0.015899254199946    -0.000000000000000
     0.256688000000000    -0.087980500000000    -0.000000000000000
     0.000000000000007    -0.000000000000007     0.002854805976339
1 19
    -0.169474572173382     0.038167311258931    -0.000000000000000
     0.194748000000001    -0.021546499999999    -0.000000000000000
     0.000000000000007    -0.000000000000004    -0.004784910370236
1 20
     0.208896329279668    -0.205016698894035    -0.000000000000000
     0.684440000000000    -0.264197500000000    -0.000000000000000
     0.000000000000007    -0.000000000000007    -0.039227522402789
1 21
     0.000541520154179    -0.236661498491994    -0.000000000000000
     0.214311000000000    -0.178302500000001    -0.000000000000000
     0.000000000000007    -0.000000000000007    -0.007838106867898
1 22
     0.166137978805105    -0.346273065386235    -0.000000000000000
     0.343090000000000    -0.263104000000000    -0.000000000000000
     0.000000000000007    -0.000000000000004     0.000870900763100
1 23
     0.278922823465569    -0.404419487170102    -0.000000000000000
     0.396253000000002    -0.153442499999999    -0.000000000000000
     0.000000000000007    -0.000000000000004     0.000255553891875
1 24
     0.206685248388702    -0.179451992530435    -0.000000000000000
     0.279949499999999    -0.355842000000001    -0.000000000000000
     0.000000000000007    -0.000000000000007     0.017572692617605
1 25
     0.037226856089209    -0.191783584538145    -0.000000000000000
     0.207251500000000    -0.195696500000002    -0.000000000000000
     0.000000000000007    -0.000000000000007    -0.007838106867898
1 26
     0.161882166351585    -0.313482022847547    -0.000000000000000
     0.316081500000003    -0.284435500000001    -0.000000000000000
     0.000000000000007    -0.000000000000007     0.000934789236069
1 27
     0.236840993967936    -0.393750377204352    -0.000000000000000
     0.384406000000002    -0.195929000000000    -0.000000000000000
     0.000000000000007    -0.000000000000004     0.000285816852755
1 28
     0.208804811867989    -0.274146221321288    -0.000000000000000
     0.169426999999999    -0.392660500000000    -0.000000000000000
     0.000000000000007    -0.000000000000004     0.017602955578485
1 29
     0.087602893438516    -1.392558262101989    -0.000000000000000
     1.896141000000003    -0.249285499999999    -0.000000000000000
     0.000000000000007    -0.000000000000007     0.390748625779061
1 30
     0.149392820573469    -0.274455155788331    -0.000000000000000
     0.024102000000001    -0.061783500000001    -0.000000000000000
     0.000000000000007    -0.000000000000004     0.002851443425130
1 31
    -0.211139769918406    -0.230913598293395    -0.000000000000000
    -0.016627499999998    -0.004294000000002    -0.000000000000000
     0.000000000000014    -0.000000000000004    -0.004758009960565
1 32
     0.211920448833489    -0.719372867299311    -0.000000000000000
     0.237427500000001    -0.245671999999999    -0.000000000000000
     0.000000000000007    -0.000000000000007    -0.039240972607625
1 33
    -3.783098729912286     0.005920316979715    -0.000000000000000
    -0.943752500000002     0.927001999999998    -0.000000000000000
    -0.000000000000014     0.000000000000007     0.495249992248621
1 34
    -1.334258131516187    -0.505254989343452    -0.000000000000000
     0.360440499999996    -0.612185000000002    -0.000000000000000
    -0.000000000000007     0.000000000000004     0.012041295878998
1 35
    -0.459686902644084    -0.538325640327763    -0.000000000000000
    -0.147829999999999    -0.483915000000001    -0.000000000000000
    -0.000000000000014     0.000000000000007     0.019751625800959
1 36
    -1.830003399982154    -1.375590630604396    -0.000000000000000
     1.017420500000000    -0.021364000000000    -0.000000000000000
    -0.000000000000007     0.000000000000007     0.610360207782196
1 37
     0.376569879240929    -0.713002547577094    -0.000000000000000
    -0.178129999999999    -0.018765500000002    -0.000000000000000
    -0.000000000000014     0.000000000000004    -0.112376461400756
1 38
     0.558088345039454    -0.713862608998436    -0.000000000000000
     0.212515499999999    -0.504857500000000    -0.000000000000000
    -0.000000000000014     0.000000000000004    -0.004183013703846
1 39
     0.152970089565823    -0.715690934747744    -0.000000000000000
     0.038625500000002    -0.159355000000000    -0.000000000000000
    -0.000000000000014     0.000000000000007    -0.006365309438409
1 40
     0.009201292031502    -0.306156584944896    -0.000000000000000
     1.180430999999999    -1.118145500000000    -0.000000000000000
    -0.000000000000014     0.000000000000004    -0.097339132394646
1 41
    -0.301797625795338    -0.383857395564149    -0.000000000000000
    -0.082119000000002    -0.185527000000000    -0.000000000000000
    -0.000000000000014     0.000000000000007     0.002464750036109
1 42
     0.229138362755275    -0.411627620987067    -0.000000000000000
     0.310563000000002    -0.625866500000001    -0.000000000000000
    -0.000000000000014     0.000000000000007     0.000282454301546
1 43
    -0.340132297624798    -0.326532102380082    -0.000000000000000
    -0.440469000000000    -0.007989000000000    -0.000000000000000
    -0.000000000000000     0.000000000000007     0.003893834299883
1 44
    -0.588744655467085    -0.384798861975989    -0.000000000000000
     0.461451500000003    -0.504935499999998    -0.000000000000000
    -0.000000000000000     0.000000000000007    -0.012565853867583
1 45
     0.001387929806928    -0.648709796200141    -0.000000000000000
    -0.148664000000004    -0.307777000000002    -0.000000000000000
    -0.000000000000014     0.000000000000007    -0.019314494143804
1 46
     0.508757426419077    -0.131679903634925    -0.000000000000000
     0.395574500000002    -0.484289000000000    -0.000000000000000
    -0.000000000000000     0.000000000000004    -0.001163442718272
1 47
     0.583669736898003    -0.297523105362641    -0.000000000000000
    -0.378718500000002    -0.123919000000001    -0.000000000000000
    -0.000000000000014     0.000000000000004    -0.004125850333295
1 48
     0.374098909125642    -0.852619184974989    -0.000000000000000
     0.090556999999997    -1.110502000000000    -0.000000000000000
    -0.000000000000014     0.000000000000004    -0.024593699541745
1 49
    -0.161637445759034     0.955057505905336    -0.000000000000000
    -0.561685499999996     0.589180000000000    -0.000000000000000
    -0.000000000000028     0.000000000000002    -0.207825840016012
1 50
     0.200263355318469     0.665723439214101    -0.000000000000000
    -0.226876500000003     0.265903000000000    -0.000000000000000
    -0.000000000000028     0.000000000000002    -0.002296622475665
1 51
     0.131367935441538     0.375148072823046    -0.000000000000000
    -0.353176500000004     0.100907500000001    -0.000000000000000
    -0.000000000000028     0.000000000000002    -0.006338409028738
1 52
    -0.380555690048944     0.892445438928466    -0.000000000000000
    -0.387459999999997     0.879907999999999    -0.000000000000000
    -0.000000000000028     0.000000000000002    -0.271320894493285
1 53
     0.039135575586897     0.341649666422829    -0.000000000000000
    -0.337156999999998     0.074291500000001    -0.000000000000000
    -0.000000000000000     0.000000000000004    -0.026443102706629
1 54
    -0.264741164003006     0.409914576839209    -0.000000000000000
    -0.054874999999996     0.435200500000000    -0.000000000000000
    -0.000000000000028     0.000000000000004    -0.000406868696274
1 55
    -0.147386516211398     0.556024905497714    -0.000000000000000
     0.066181999999998     0.413435000000000    -0.000000000000000
    -0.000000000000028     0.000000000000002    -0.000722948509909
1 56
     0.228679258833715     0.394326785211601    -0.000000000000000
     0.014675500000003     0.974684000000000    -0.000000000000000
    -0.000000000000000     0.000000000000002    -0.066746641496260
1 57
     0.095620020949866     0.324347819405245    -0.000000000000000
    -0.189700999999999     0.131172500000000    -0.000000000000000
    -0.000000000000028     0.000000000000002     0.001432446814983
1 58
    -0.359003086788434     0.275355161273334    -0.000000000000000
    -0.104027000000002     0.551623500000000    -0.000000000000000
    -0.000000000000028     0.000000000000004     0.002673228211059
1 59
    -0.169305694739684     0.447148006002186    -0.000000000000000
     0.014467000000003     0.330486500000000    -0.000000000000000
    -0.000000000000000     0.000000000000002    -0.001113004450139
1 60
     0.086794405365190     0.497349604086142    -0.000000000000000
    -0.075372499999993     0.289427500000000    -0.000000000000000
    -0.000000000000028     0.000000000000002     0.004747922306938
1 61
    -0.190975096464825     0.491466703064790    -0.000000000000000
     0.154949500000001    -0.079273500000000    -0.000000000000000
    -0.000000000000028     0.000000000000002     0.100405779097144
1 62
     0.578957348628208     0.235073342745705    -0.000000000000000
     0.015105499999997     0.401017000000000    -0.000000000000000
    -0.000000000000028     0.000000000000004    -0.011483112378324
1 63
     0.299890928781899     0.115421658483098    -0.000000000000000
    -0.104210499999994     0.197120500000000    -0.000000000000000
    -0.000000000000028     0.000000000000004    -0.009388242975192
1 64
    -0.048283271786147     1.005442644433705    -0.000000000000000
     0.505222000000003     0.592440000000000    -0.000000000000000
    -0.000000000000028     0.000000000000004     0.307861738480179
1 65
   -12.189138836172216     5.417470263476318    -0.000000000000000
     4.255172500000000    -8.979253499999999    -0.000000000000000
     0.000000000000000    -0.000000000000007    -5.571199257266426
1 66
     1.218037086138827     0.548857221365469    -0.000000000000000
     0.182527500000001    -0.049719500000001    -0.000000000000000
    -0.000000000000004    -0.000000000000002     0.001190343127943
1 67
     0.766761189811046     0.209290208084620    -0.000000000000000
     0.472622000000000    -0.136528499999999    -0.000000000000000
    -0.000000000000004    -0.000000000000002     0.014058826604326
1 68
     0.742663795760634     0.454398106367046    -0.000000000000000
     0.997328000000000    -0.066674500000000    -0.000000000000000
    -0.000000000000004    -0.000000000000002     0.356100898122766
1 69
    -0.436519851342211    -0.033661722002269    -0.000000000000000
    -0.291856000000000    -0.203062499999999    -0.000000000000000
    -0.000000000000004    -0.000000000000002     0.126008244001554
1 70
    -0.134917395275640     0.141547098601119    -0.000000000000000
     0.255849500000000     0.082629500000000    -0.000000000000000
    -0.000000000000002    -0.000000000000002     0.002568989123584
1 71
    -0.008229488356124     0.099197289942221    -0.000000000000000
    -0.178441500000000     0.236854500000000    -0.000000000000000
    -0.000000000000000    -0.000000000000002    -0.000501020130123
1 72
     0.077452045058231     0.327725873700358    -0.000000000000000
     0.185565500000000    -0.135852500000000    -0.000000000000000
    -0.000000000000004    -0.000000000000002     0.024183468294262
1 73
     0.507761352932866     0.241981137653630    -0.000000000000000
     0.216252500000000     0.013408000000000    -0.000000000000000
    -0.000000000000004    -0.000000000000004    -0.011274634203373
1 74
     0.406070339927706     0.091407691907418    -0.000000000000000
     0.390404500000000     0.114392500000001    -0.000000000000000
    -0.000000000000004    -0.000000000000004    -0.001529960800040
1 75
     0.735151278066158     0.232179673425105    -0.000000000000000
     0.043039000000000     0.313048500000000    -0.000000000000000
    -0.000000000000000    -0.000000000000002    -0.000067251024178
1 76
     0.656908441671667     0.329479873153995    -0.000000000000000
     0.181035499999999     0.148739500000000    -0.000000000000000
    -0.000000000000000    -0.000000000000002     0.012730618876818
1 77
     0.407281302363987     0.236736330408724    -0.000000000000000
     0.198893000000000     0.390157000000000    -0.000000000000000
    -0.000000000000004    -0.000000000000002     0.019620486303812
1 78
    -0.334009226600428     0.282453069699438    -0.000000000000000
     0.304343500000000     0.115227000000000    -0.000000000000000
    -0.000000000000004    -0.000000000000002    -0.006624225881493
1 79
    -0.211665615819756     0.447438232490046    -0.000000000000000
     0.246540500000000     0.320872500000000    -0.000000000000000
    -0.000000000000004    -0.000000000000002     0.003903921953509
1 80
     0.228506336431543     0.505038583530204    -0.000000000000000
     0.496626500000000     0.419749500000000    -0.000000000000000
    -0.000000000000000    -0.000000000000002    -0.045865198489118
1 81
    -0.160016930264970     2.070150650054824    -0.000000000000000
     1.285215999999998    -2.655592500000000    -0.000000000000000
     0.000000000000014     0.000000000000004     0.701552596567010
1 82
    -0.356259081301289    -0.097377559750916    -0.000000000000000
    -0.288019999999999     0.049676000000000    -0.000000000000000
     0.000000000000014     0.000000000000004    -0.008692194874954
1 83
    -0.371051531003108    -0.296790460448163    -0.000000000000000
     0.593845500000000    -0.558146499999999    -0.000000000000000
     0.000000000000014     0.000000000000004     0.005450695509594
1 84
    -0.156760730645072    -0.200539424416679    -0.000000000000000
     0.495654500000001    -0.126804999999999    -0.000000000000000
     0.000000000000014     0.000000000000007     0.032145989556889
1 85
    -0.179982389021315    -0.433740452380942    -0.000000000000000
    -0.106092999999998    -0.604116500000000    -0.000000000000000
     0.000000000000014     0.000000000000004     0.004825260984742
1 86
    -0.017935390204496    -0.266746457122968    -0.000000000000000
     0.267147500000000    -0.066011500000000    -0.000000000000000
     0.000000000000014     0.000000000000004     0.031591168607424
1 87
     0.218375207272555    -0.280448282200542    -0.000000000000000
     0.291387000000000    -0.786164000000001    -0.000000000000000
     0.000000000000014     0.000000000000004    -0.000561546051883
1 88
     0.121112929123090    -0.411004190221334    -0.000000000000000
    -0.402570000000001    -0.251042500000001    -0.000000000000000
     0.000000000000014     0.000000000000004    -0.007148783870078
1 89
    -0.256367573645079    -0.334524960080600    -0.000000000000000
     0.337736499999998    -0.626176500000000    -0.000000000000000
     0.000000000000014     0.000000000000004     0.005185053964092
1 90
    -0.132451481370946    -0.236726217987544    -0.000000000000000
     0.161950999999998    -0.124644499999999    -0.000000000000000
     0.000000000000014     0.000000000000004     0.005100990183870
1 91
     0.193529494054840    -0.161729974412829    -0.000000000000000
     0.084421000000003    -0.612743999999999    -0.000000000000000
     0.000000000000014     0.000000000000004    -0.000117689292311
1 92
    -0.106623852056668    -0.206968901802796    -0.000000000000000
    -0.342644499999999    -0.157752000000000    -0.000000000000000
     0.000000000000014     0.000000000000007     0.002269722065994
1 93
     0.620047149608112    -1.359722219289050    -0.000000000000000
    -2.013908000000001    -2.526950499999999    -0.000000000000000
     0.000000000000014     0.000000000000004     0.555493459706907
1 94
     0.254802676467502    -0.810001902775886    -0.000000000000000
    -0.547413000000002     0.156074500000001    -0.000000000000000
     0.000000000000014     0.000000000000007    -0.054096723848455
1 95
    -0.366922123814334    -0.511438734894901    -0.000000000000000
    -0.089903499999998    -0.262777499999999    -0.000000000000000
     0.000000000000014     0.000000000000007     0.003285212531075
1 96
    -0.090590102655032    -0.226192614465603    -0.000000000000000
    -0.054215499999998     0.074565500000000    -0.000000000000000
     0.000000000000014     0.000000000000004     0.011254458896120
1 97
   -12.610739326926804    -2.852251877174573    -0.000000000000000
    -4.253752500000004    -7.759500500000000    -0.000000000000000
     0.000000000000028     0.000000000000004    -5.640763716675727
1 98
     1.217448543226162    -0.085832208489934    -0.000000000000000
    -0.121707999999998    -0.179724500000000    -0.000000000000000
     0.000000000000028     0.000000000000002     0.350667015369216
1 99
     0.575817441851882    -0.162822621521307    -0.000000000000000
    -0.433744499999996     0.421306000000000    -0.000000000000000
     0.000000000000028     0.000000000000004    -0.005339731319701
1 100
     0.308131540801313     0.272998967138439    -0.000000000000000
    -0.076751999999992    -0.020377500000000    -0.000000000000000
     0.000000000000028     0.000000000000002    -0.046114027278575
1 101
    -0.471928999724355     0.352540744033477    -0.000000000000000
    -0.543067499999999     1.793798500000000    -0.000000000000000
    -0.000000000000000     0.000000000000002     0.436247306186411
1 102
    -0.394065884745153     0.233818391277293    -0.000000000000000
     0.019984999999998    -0.172046500000000    -0.000000000000000
     0.000000000000028     0.000000000000002     0.033965129760893
1 103
    -0.479533034830496     0.498003372115416    -0.000000000000000
    -0.283321500000000     0.549403000000001    -0.000000000000000
     0.000000000000028     0.000000000000004     0.000682597895403
1 104
    -0.254953857164139     0.340989325319788    -0.000000000000000
     0.030693499999998     0.280267000000000    -0.000000000000000
     0.000000000000028     0.000000000000002     0.005087539979035
1 105
     0.517315062842492     0.241731866471548    -0.000000000000000
    -0.208450500000005     0.724350500000000    -0.000000000000000
     0.000000000000028     0.000000000000004    -0.003248224467778
1 106
     0.316609289097400     0.347419813948025    -0.000000000000000
    -0.017538999999999     0.014006000000000    -0.000000000000000
     0.000000000000028     0.000000000000002     0.006096305341699
1 107
     0.163925381050966     0.649021764393538    -0.000000000000000
     0.045721000000000     0.873159500000000    -0.000000000000000
     0.000000000000028     0.000000000000004     0.000914613928815
1 108
     0.455164122271412     0.420190313621066    -0.000000000000000
     0.301876499999999    -0.054841500000000    -0.000000000000000
     0.000000000000028     0.000000000000004     0.001963729905986
1 109
    -0.655065958532703     0.324065177233269    -0.000000000000000
    -0.360492499999999     0.684086000000001    -0.000000000000000
     0.000000000000028     0.000000000000002    -0.001614024580262
1 110
    -0.089896390562096     0.235334243212145    -0.000000000000000
     0.156150000000004     0.098295500000000    -0.000000000000000
     0.000000000000028     0.000000000000004    -0.014959990328305
1 111
    -0.174376568340293     0.345929243066122    -0.000000000000000
     0.067908499999994     0.811309000000000    -0.000000000000000
     0.000000000000028     0.000000000000004     0.001751889179826
1 112
    -0.395598422174956     0.327366377127416    -0.000000000000000
     0.224880999999996    -0.043946500000000    -0.000000000000000
     0.000000000000028     0.000000000000004    -0.002121769812803
1 113
    -5.956076017870761     0.426089394516304    -0.000000000000000
    -1.936946499999999   -17.282235000000000    -0.000000000000000
     0.000000000000007    -0.000000000000004    -5.945491557429230
1 114
    -0.220199993674451     0.132469178108009    -0.000000000000000
     0.049261500000000     0.179068500000000    -0.000000000000000
     0.000000000000004    -0.000000000000002    -0.002162120427310
1 115
     0.041081205421892     0.524181902444631    -0.000000000000000
    -0.702549000000000     0.549834000000000    -0.000000000000000
     0.000000000000004    -0.000000000000004    -0.003016208434365
1 116
    -0.141646200328680     0.499291188952663    -0.000000000000000
    -0.542154500000001     0.411833500000000    -0.000000000000000
     0.000000000000004    -0.000000000000004    -0.002999395678321
1 117
    -0.052271105078403     0.033485260252682    -0.000000000000000
    -0.282279000000000     0.507264000000000    -0.000000000000000
     0.000000000000004    -0.000000000000002     0.038733227375084
1 118
     0.025544481521242     0.041700591219155    -0.000000000000000
    -0.247500000000000     0.112789999999999    -0.000000000000000
     0.000000000000004    -0.000000000000002    -0.006456098321049
1 119
    -0.208610653381339     0.287204896411827    -0.000000000000000
    -0.710080000000000     0.366207500000000    -0.000000000000000
     0.000000000000004    -0.000000000000002     0.000891076070353
1 120
    -0.379435233782223     0.215141254979255    -0.000000000000000
     0.163335500000001     0.012529500000000    -0.000000000000000
     0.000000000000004    -0.000000000000002    -0.004744559755729
1 121
    -0.103764564968079     0.314157026961298    -0.000000000000000
    -0.582142500000000     0.384304500000000    -0.000000000000000
     0.000000000000004    -0.000000000000004     0.001139904859810
1 122
    -0.106082837523548     0.116119415544503    -0.000000000000000
    -0.172424500000000     0.051286500000000    -0.000000000000000
     0.000000000000004    -0.000000000000002     0.006419110257751
1 123
    -0.279468388588219     0.281441827581458    -0.000000000000000
    -0.574051499999999     0.481754000000000    -0.000000000000000
     0.000000000000004    -0.000000000000002    -0.002555538918748
1 124
    -0.234468619959154     0.109188867688925    -0.000000000000000
     0.072138000000001    -0.088212000000000    -0.000000000000000
     0.000000000000004    -0.000000000000002     0.002999395678321
1 125
     0.443384162839061     0.418524797852752    -0.000000000000000
    -0.955437499999999     0.180928000000000    -0.000000000000000
     0.000000000000002    -0.000000000000002    -0.252460344762679
1 126
    -0.545097928791877     0.068158224372933    -0.000000000000000
     0.279583500000000    -0.062230000000000    -0.000000000000000
     0.000000000000004    -0.000000000000004     0.011668052694812
1 127
     0.139292534299082    -0.271871937797951    -0.000000000000000
    -0.003061500000000     0.393500999999999    -0.000000000000000
     0.000000000000002    -0.000000000000002     0.003429802233057
1 128
     0.303957638959348    -0.022523395693776    -0.000000000000000
     0.067534999999999     0.000575000000001    -0.000000000000000
     0.000000000000004    -0.000000000000004     0.018645346453237
2 1
    -0.945890090484785    -0.272865988799925     0.000000000000000
    -0.235056500000001    -0.184033500000000     0.000000000000000
    -0.000000000000007    -0.000000000000004    -0.066333047697568
2 2
    36.159412168038301    -0.838922416108005     0.000000000000000
    -0.846092499999998    37.638525999999999     0.000000000000000
    -0.000000000000014    -0.000000000000007    13.522099542915395
2 3
    -0.947487347410137    -0.229055440901606     0.000000000000000
    -0.259045999999998    -0.207892499999998     0.000000000000000
    -0.000000000000007    -0.000000000000004    -0.066487725053176
2 4
    -0.392739640707430    -0.284539262188831     0.000000000000000
    -0.269431500000000    -0.297286000000001     0.000000000000000
    -0.000000000000007    -0.000000000000007    -0.008312226588350
2 5
     0.014607898015283    -0.285540391885631     0.000000000000000
    -0.246607000000003     0.056882500000002     0.000000000000000
    -0.000000000000007    -0.000000000000004     0.014593472246537
2 6
    -0.105710700424131    -0.076632938942668     0.000000000000000
     0.091112500000001    -0.386140500000000     0.000000000000000
    -0.000000000000007    -0.000000000000007     0.003039746292827
2 7
     0.096056877544832    -0.079423461567234     0.000000000000000
     0.093193999999999     0.061768000000001     0.000000000000000
    -0.000000000000007    -0.000000000000004     0.003688718676141
2 8
     0.056962257263713    -0.361323887449194     0.000000000000000
     0.185008000000000    -0.419972499999998     0.000000000000000
    -0.000000000000007    -0.000000000000004     0.001553498658502
2 9
    -0.540395652943270    -0.169023052567702     0.000000000000000
    -0.118240500000001     0.058132000000001     0.000000000000000
    -0.000000000000007    -0.000000000000007    -0.012454889677690
2 10
    -0.451592920731767    -0.337144077166167     0.000000000000000
    -0.324190000000003    -0.335949499999998     0.000000000000000
    -0.000000000000007    -0.000000000000007     0.003971172977687
2 11
    -0.541562626347416    -0.137307466021484     0.000000000000000
    -0.178229999999997     0.084161500000000     0.000000000000000
    -0.000000000000007    -0.000000000000007    -0.012471702433734
2 12
    -0.727501231443635    -0.198461321864228     0.000000000000000
    -0.208818500000000    -0.684174500000001     0.000000000000000
    -0.000000000000007    -0.000000000000004     0.000063888472969
2 13
     0.093500963091637     0.109697522474267     0.000000000000000
    -0.097789000000001     0.061294000000000     0.000000000000000
    -0.000000000000014    -0.000000000000007     0.003745882046692
2 14
    -0.044796508963351     0.101819946375203     0.000000000000000
    -0.094220500000000    -0.415963999999999     0.000000000000000
    -0.000000000000007    -0.000000000000007     0.002992670575903
2 15
     0.014606886773169    -0.234290641346391     0.000000000000000
    -0.294531000000001     0.061474000000000     0.000000000000000
    -0.000000000000007    -0.000000000000007     0.014445519993347
2 16
    -0.005096660274619     0.207457331745781     0.000000000000000
    -0.376625000000001    -0.387334999999998     0.000000000000000
    -0.000000000000007    -0.000000000000007     0.001563586312129
2 17
     0.208896329279668    -0.205016698894035     0.000000000000000
     0.684440000000000    -0.264197500000000     0.000000000000000
     0.000000000000007    -0.000000000000007    -0.039227522402789
2 18
     0.047013657307021    -1.886013572791789     0.000000000000000