 128  128
1 1
    23.123815066633192    -3.153109005072651    -0.000000000000000
    -3.149505352476456    32.280960932246252    -0.000000000000000
    -0.000000000000010     0.000000000000006     3.427523745244125
1 2
    -0.008860497846425    -0.010433303853503    -0.000000000000000
    -0.049808522820590    -0.004688809601677     0.000000000000000
    -0.000000000000000     0.000000000000002    -0.004178231722054
1 3
     0.007012029637524    -0.006680724509776    -0.000000000000000
    -0.006688076361577    -0.003102061682799     0.000000000000000
    -0.000000000000002    -0.000000000000000    -0.000096706846979
1 4
    -0.009013643514105    -0.049870355223426    -0.000000000000000
    -0.010491848517931    -0.004709883608941     0.000000000000000
    -0.000000000000000     0.000000000000000    -0.004175752059311
1 5
     0.032558258463281     0.048126026068546    -0.000000000000000
    -0.005674518544533    -0.044536485292303     0.000000000000000
    -0.000000000000000    -0.000000000000000    -0.014999479932763
1 6
    -0.010386339182080    -0.006183511575373    -0.000000000000000
     0.012576496014558     0.004416477394539     0.000000000000000
     0.000000000000000     0.000000000000000    -0.000109105160695
1 7
    -0.004210484890092    -0.002620832859570    -0.000000000000000
     0.001655245709429    -0.000244737360643     0.000000000000000
     0.000000000000000     0.000000000000000    -0.000054552580347
1 8
    -0.006829786292984    -0.004607642654942    -0.000000000000000
     0.000263656543940    -0.004281051904185     0.000000000000000
     0.000000000000000    -0.000000000000000    -0.000054552580347
1 9
     0.018472940921161     0.008723687716631    -0.000000000000000
     0.008686395747714    -0.017490108261468    -0.000000000000000
     0.000000000000000    -0.000000000000000     0.001247270359759
1 10
    -0.008107021161439    -0.001667756321039    -0.000000000000000
     0.003508368714184    -0.002216304391676     0.000000000000000
     0.000000000000000    -0.000000000000000    -0.000054552580347
1 11
    -0.005705186606651     0.000075041377164    -0.000000000000000
     0.000037799165288    -0.000672982673719     0.000000000000000
     0.000000000000000    -0.000000000000000    -0.000052072917604
1 12
    -0.008223922354434     0.003506525304321    -0.000000000000000
    -0.001757481429348    -0.002226611736874     0.000000000000000
     0.000000000000000    -0.000000000000000    -0.000057032243090
1 13
     0.032385203858802    -0.005738878653541    -0.000000000000000
     0.047850965065596    -0.044627865373179     0.000000000000000
     0.000000000000000    -0.000000000000000    -0.014992040944534
1 14
    -0.006915037381326     0.000177138488950    -0.000000000000000
    -0.004692752634199    -0.004323261371785    -0.000000000000000
    -0.000000000000000    -0.000000000000000    -0.000057032243090
1 15
    -0.004402937945811     0.001603435140613    -0.000000000000000
    -0.002790873215607    -0.000290733607296     0.000000000000000
    -0.000000000000002    -0.000000000000000    -0.000059511905833
1 16
    -0.010709987026445     0.012375701405249    -0.000000000000000
    -0.006385968383942     0.004313314427277     0.000000000000000
    -0.000000000000000     0.000000000000000    -0.000109105160695
1 17
    -0.120611912523886     0.263995564860719    -0.000000000000000
     0.181143633048433    -0.373926363424282    -0.000000000000000
     0.000000000000000    -0.000000000000000     0.053419374473718
1 18
     0.028136943037349    -0.026356369407786    -0.000000000000000
    -0.020852354922398     0.017915822909078    -0.000000000000000
     0.000000000000001     0.000000000000000     0.001961413229760
1 19
     0.009484311199444    -0.024226623655912    -0.000000000000000
     0.002091824749270     0.009815957365355     0.000000000000000
    -0.000000000000000     0.000000000000000    -0.000052072917604
1 20
     0.014863808019495    -0.090404950545057    -0.000000000000000
     0.014493877716404    -0.020352987189817     0.000000000000000
    -0.000000000000001     0.000000000000000    -0.000084308533264
1 21
    -0.032014591343016     0.083825302175951    -0.000000000000000
     0.049430326288372    -0.165379821930731     0.000000000000000
     0.000000000000000    -0.000000000000000    -0.000498412211355
1 22
     0.009011601571870     0.010256675850112    -0.000000000000000
     0.001732298100470    -0.024329841049414     0.000000000000000
    -0.000000000000001    -0.000000000000002    -0.000052072917604
1 23
     0.002588672269356     0.004442245333848    -0.000000000000000
     0.001832441078213    -0.006040663897195     0.000000000000000
    -0.000000000000001    -0.000000000000000    -0.000054552580347
1 24
    -0.008286201592624     0.001086823754972    -0.000000000000000
     0.008220964797777    -0.023493904747366     0.000000000000000
     0.000000000000001    -0.000000000000000    -0.000054552580347
1 25
     0.005126295982820    -0.034899345236554    -0.000000000000000
     0.060505151819077    -0.215495763532727    -0.000000000000000
     0.000000000000000    -0.000000000000000     0.000438900305521
1 26
     0.001183816011169     0.026896463129139    -0.000000000000000
     0.010523523584813    -0.027450019765521     0.000000000000000
    -0.000000000000001    -0.000000000000000    -0.000059511905833
1 27
    -0.002377841733517     0.024842269239986    -0.000000000000000
     0.001524387649295    -0.002082987180285     0.000000000000000
     0.000000000000000    -0.000000000000000    -0.000057032243090
1 28
    -0.028343689688718     0.073361879674472    -0.000000000000000
    -0.007893860911975     0.009307591711224     0.000000000000000
     0.000000000000001    -0.000000000000000    -0.000057032243090
1 29
     0.131364269851722     0.208163248794499    -0.000000000000000
    -0.868389947431013    -1.834515998350507     0.000000000000000
    -0.000000000000001    -0.000000000000000    -0.130013676944064
1 30
    -0.003155821725333     0.026050078072426    -0.000000000000000
     0.009539603108760     0.007154452565496    -0.000000000000000
     0.000000000000000    -0.000000000000002     0.000314917168368
1 31
     0.010824335791646     0.006247832755799    -0.000000000000000
     0.005444225841046     0.004266626205538     0.000000000000000
     0.000000000000000     0.000000000000000    -0.000054552580347
1 32
     0.035740114952119     0.051332896349772    -0.000000000000000
    -0.005044770201410     0.045920087220019    -0.000000000000000
    -0.000000000000000     0.000000000000000     0.000042154266632
1 33
     0.378359134143247    -0.346540058769304    -0.000000000000000
    -0.302821845542875     0.583690700902169     0.000000000000000
    -0.000000000000000     0.000000000000001    -0.496118523317508
1 34
    -0.039261444337649     0.002971025952998    -0.000000000000000
     0.012703005016821    -0.031238137288590     0.000000000000000
    -0.000000000000007    -0.000000000000000    -0.008584592416470
1 35
    -0.006462236690551     0.010189802241890    -0.000000000000000
    -0.005249593936007    -0.005102082175021     0.000000000000000
    -0.000000000000000    -0.000000000000000    -0.000091747521493
1 36
    -0.023264868862878     0.052899576530142    -0.000000000000000
    -0.006457581340886     0.004410053909000     0.000000000000000
     0.000000000000007    -0.000000000000000    -0.000148779764584
1 37
     0.056884426803185    -0.056517387686311    -0.000000000000000
    -0.043496551699326     0.077714264846889    -0.000000000000000
    -0.000000000000007     0.000000000000000     0.010087268038764
1 38
    -0.015050135248508    -0.000124047990821    -0.000000000000000
     0.007902036942861     0.006080209949954     0.000000000000000
     0.000000000000000     0.000000000000000    -0.000061991568576
1 39
    -0.007576116180148     0.001280297781808    -0.000000000000000
     0.000656037715771     0.001542443960228     0.000000000000000
     0.000000000000000     0.000000000000001    -0.000057032243090
1 40
    -0.008603213124722     0.011320017269372    -0.000000000000000
    -0.007252175923400     0.010582399384385     0.000000000000000
    -0.000000000000007     0.000000000000000    -0.000059511905833
1 41
     0.021093263295171    -0.001958222604073    -0.000000000000000
    -0.026743404533496     0.080795810932587     0.000000000000000
    -0.000000000000000     0.000000000000001    -0.001616740108474
1 42
    -0.005142121035147    -0.009983566076081    -0.000000000000000
    -0.006459690914811     0.011541142469938     0.000000000000000
    -0.000000000000000     0.000000000000000    -0.000059511905833
1 43
    -0.002394177271400    -0.009130544707102    -0.000000000000000
    -0.002076071531777     0.001432861479474     0.000000000000000
    -0.000000000000000     0.000000000000000    -0.000057032243090
1 44
     0.005881814610042    -0.020757874282952    -0.000000000000000
    -0.002647834288920     0.002102722797586     0.000000000000000
     0.000000000000007     0.000000000000000    -0.000061991568576
1 45
     0.096101458897206     0.020537855007051    -0.000000000000000
    -0.082629256987522     0.401728488686676     0.000000000000000
    -0.000000000000000    -0.000000000000001    -0.083262115586431
1 46
     0.002076655253745    -0.014583040962080    -0.000000000000000
    -0.016159191521606     0.003955526587828    -0.000000000000000
    -0.000000000000000     0.000000000000000    -0.000032235615660
1 47
    -0.002107794872838    -0.008168279428510    -0.000000000000000
    -0.004270117207861    -0.002176026983566     0.000000000000000
    -0.000000000000007     0.000000000000001    -0.000061991568576
1 48
     0.013540118965178    -0.044102889378584    -0.000000000000000
     0.005827705231187    -0.019753761387397     0.000000000000000
    -0.000000000000007     0.000000000000001    -0.001435724728231
1 49
     0.092975755819852    -0.137598319497430    -0.000000000000000
    -0.107612140667488     0.187171318972636     0.000000000000000
    -0.000000000000000     0.000000000000000    -0.029693961348130
1 50
     0.003480490540813     0.015192560719449    -0.000000000000000
    -0.002011442138269    -0.001616952281783     0.000000000000000
    -0.000000000000000    -0.000000000000000     0.000002479662743
1 51
    -0.003047088301280     0.009616526959209    -0.000000000000000
     0.002661925708722     0.000189571511136     0.000000000000000
    -0.000000000000007    -0.000000000000000    -0.000054552580347
1 52
    -0.032969709823782     0.023364924032430    -0.000000000000000
    -0.000156745281203     0.018932762057071     0.000000000000000
     0.000000000000000     0.000000000000000    -0.000042154266632
1 53
     0.017608688869887    -0.020361737489218    -0.000000000000000
    -0.034519618451910     0.094047492643181     0.000000000000000
    -0.000000000000000     0.000000000000000    -0.000054552580347
1 54
     0.010261270220143    -0.005544383655587    -0.000000000000000
    -0.005803770531715     0.017886442041972     0.000000000000000
    -0.000000000000007    -0.000000000000004    -0.000052072917604
1 55
     0.003682132336595    -0.007143224426169    -0.000000000000000
    -0.000951983780926     0.003670861073699     0.000000000000000
    -0.000000000000000     0.000000000000000    -0.000057032243090
1 56
    -0.008037084639863    -0.023937688829555    -0.000000000000000
    -0.007928761429101     0.008127504395352     0.000000000000000
    -0.000000000000000     0.000000000000000    -0.000059511905833
1 57
    -0.010440450651327     0.060560943798629    -0.000000000000000
    -0.067984037970845     0.189938788821076    -0.000000000000000
    -0.000000000000000     0.000000000000004     0.001829991104377
1 58
     0.014431426751075    -0.013519699542820    -0.000000000000000
    -0.000541003256501     0.016937079174351     0.000000000000000
    -0.000000000000000     0.000000000000000    -0.000057032243090
1 59
     0.012531909986283    -0.010700798286384    -0.000000000000000
     0.001750722829463     0.000357682997866     0.000000000000000
    -0.000000000000000     0.000000000000004    -0.000057032243090
1 60
     0.010433303853501    -0.070535321134651    -0.000000000000000
    -0.005334745095434    -0.025945143492820     0.000000000000000
    -0.000000000000007    -0.000000000000000    -0.000032235615660
1 61
    -1.437799422762350    -4.208751281133278    -0.000000000000000
    -3.088021419580461   -22.456429261380389     0.000000000000000
     0.000000000000007    -0.000000000000003    -2.791185253132123
1 62
     0.018837938095800     0.025271077109491    -0.000000000000000
     0.039871398016878    -0.040029994579234     0.000000000000000
     0.000000000000007     0.000000000000004    -0.000969548132536
1 63
     0.009989181417229     0.018570443662918    -0.000000000000000
     0.010432162801838     0.002444887704181     0.000000000000000
     0.000000000000000    -0.000000000000004    -0.000086788196007
1 64
     0.085137760547973     0.126956737535883    -0.000000000000000
     0.035078250830415     0.013450479528560     0.000000000000000
     0.000000000000000    -0.000000000000000    -0.003139253032713
1 65
    -8.977979461501908    -3.771050242706136    -0.000000000000000
    -4.839970385381996     3.981898733694384    -0.000000000000000
    -0.000000000000000     0.000000000000003     2.171418347131984
1 66
    -0.011502771099469    -0.034125959614769    -0.000000000000000
    -0.063710203658864     0.002335057720632    -0.000000000000000
    -0.000000000000000     0.000000000000000     0.002635881495872
1 67
    -0.032467902519347    -0.009538933154249    -0.000000000000000
    -0.018729796668687    -0.004106149342387    -0.000000000000000
    -0.000000000000000    -0.000000000000000     0.000047113592118
1 68
    -0.200597852811089    -0.051413042582525    -0.000000000000000
    -0.063634430158061    -0.007516505867367    -0.000000000000000
     0.000000000000000     0.000000000000000     0.004022012969242
1 69
    -0.091379467477061     0.083253558349944    -0.000000000000000
     0.069307035958573    -0.084786785814882    -0.000000000000000
     0.000000000000014    -0.000000000000000     0.007555532378100
1 70
    -0.010543568734231    -0.011940767709036    -0.000000000000000
    -0.000734268518830     0.005221271052938    -0.000000000000000
     0.000000000000000     0.000000000000000     0.000037194941146
1 71
     0.002452372625122    -0.005715396317830    -0.000000000000000
    -0.006638541124733    -0.000224133997129     0.000000000000000
    -0.000000000000000     0.000000000000000    -0.000047113592118
1 72
     0.055130398422687    -0.009067244497794    -0.000000000000000
    -0.010056407858876    -0.010059919723439     0.000000000000000
    -0.000000000000000    -0.000000000000000    -0.000069430556806
1 73
    -0.031596503670251     0.011152578006041    -0.000000000000000
     0.014155449861388    -0.040398145248905     0.000000000000000
     0.000000000000000     0.000000000000000    -0.001398529787085
1 74
    -0.013304274636948    -0.000889265843664    -0.000000000000000
     0.000319719399453    -0.007481024546422     0.000000000000000
     0.000000000000000     0.000000000000000    -0.000059511905833
1 75
    -0.001246095249357     0.001700937882370    -0.000000000000000
    -0.000136545891863    -0.001636734577150     0.000000000000000
     0.000000000000000    -0.000000000000000    -0.000059511905833
1 76
     0.032224911393296     0.012876998224122    -0.000000000000000
     0.011885474160248    -0.002923559962021     0.000000000000000
     0.000000000000000    -0.000000000000000    -0.000054552580347
1 77
    -0.028678057729820    -0.028188502078802    -0.000000000000000
    -0.002833800863133    -0.122469470928862    -0.000000000000000
     0.000000000000000     0.000000000000000     0.013372821173317
1 78
    -0.017527521666015     0.003105283654998    -0.000000000000000
    -0.005506640632664    -0.009645168272030     0.000000000000000
     0.000000000000000    -0.000000000000000    -0.000039674603889
1 79
    -0.017635744604508     0.001861740833434    -0.000000000000000
    -0.002706175569582    -0.001185824331187     0.000000000000000
     0.000000000000000    -0.000000000000000    -0.000057032243090
1 80
     0.020731839519446     0.032159569241753    -0.000000000000000
     0.026182205161927     0.013210249115916     0.000000000000000
     0.000000000000000     0.000000000000000    -0.000052072917604
1 81
    -1.164135261415410     1.056704086023212    -0.000000000000000
     2.277145814914503    -2.175467099498439     0.000000000000000
     0.000000000000000    -0.000000000000000    -0.251613858200929
1 82
     0.012068899584329    -0.026047525644630    -0.000000000000000
    -0.054398830973907     0.064366910032003    -0.000000000000000
    -0.000000000000000     0.000000000000000     0.005551964881709
1 83
     0.007479634409508    -0.014600907956645    -0.000000000000000
     0.007717265471946     0.001885611118706     0.000000000000000
     0.000000000000000     0.000000000000000    -0.000049593254861
1 84
     0.026450809236189    -0.103028237446388    -0.000000000000000
     0.007918475066223     0.000454200724457     0.000000000000000
    -0.000000000000000     0.000000000000000    -0.000133901788125
1 85
    -0.080790976013644     0.159804441311080    -0.000000000000000
     0.064758990579213    -0.144716977707127    -0.000000000000000
     0.000000000000000    -0.000000000000000     0.001430765402745
1 86
     0.019478086986704    -0.017850148539262    -0.000000000000000
    -0.009727512835189     0.007602814395749     0.000000000000000
    -0.000000000000000     0.000000000000000    -0.000061991568576
1 87
     0.009811021957161    -0.012642685352573    -0.000000000000000
    -0.000702529975507     0.001010287629555     0.000000000000000
    -0.000000000000000     0.000000000000000    -0.000054552580347
1 88
     0.012457889580237    -0.044196818721428    -0.000000000000000
     0.010541834299913    -0.018741078090443     0.000000000000000
     0.000000000000000    -0.000000000000000    -0.000054552580347
1 89
    -0.023874388620246     0.040108339879922    -0.000000000000000
     0.042535056707378    -0.096985362991283     0.000000000000000
     0.000000000000002    -0.000000000000000    -0.000233088297848
1 90
     0.005533152973291     0.006565865259017    -0.000000000000000
     0.008754102792586    -0.017002347332566     0.000000000000000
     0.000000000000000    -0.000000000000000    -0.000054552580347
1 91
     0.002141486919729     0.006358097636529    -0.000000000000000
     0.002462552876987    -0.003983044531610     0.000000000000000
     0.000000000000000    -0.000000000000000    -0.000054552580347
1 92
    -0.009669617457337     0.008981482923891    -0.000000000000000
     0.003538265877509    -0.016293565842597     0.000000000000000
     0.000000000000000    -0.000000000000000    -0.000057032243090
1 93
    -0.018882860824985     0.046283173200793    -0.000000000000000
     0.106222674780400    -0.309540759592618    -0.000000000000000
     0.000000000000000    -0.000000000000000     0.027249013883474
1 94
    -0.000377248828053     0.018806287991145    -0.000000000000000
     0.017084635095337    -0.019772349723283     0.000000000000000
     0.000000000000002    -0.000000000000000    -0.000111584823438
1 95
     0.001918404730475     0.019661351302361    -0.000000000000000
     0.004562532298348     0.001544224287729     0.000000000000000
     0.000000000000000    -0.000000000000000    -0.000057032243090
1 96
    -0.027404396260279     0.100881645671068    -0.000000000000000
    -0.011342023592173     0.024957825276452     0.000000000000000
    -0.000000000000002    -0.000000000000000    -0.000114064486181
1 97
   -11.870238003242434    10.391432296502000    -0.000000000000000
    10.029304979147412   -10.636826187264319     0.000000000000000
     0.000000000000002    -0.000000000000009    -2.785945725756039
1 98
    -0.004579055463644    -0.007152413166231    -0.000000000000000
     0.050151153202194     0.010507049296569    -0.000000000000000
     0.000000000000000    -0.000000000000004     0.004460913274763
1 99
     0.011761587277851     0.003522860842207    -0.000000000000000
     0.012508310804673     0.002950895172564    -0.000000000000000
     0.000000000000000    -0.000000000000004    -0.000066950894063
1 100
     0.066251326324075     0.014790298099010    -0.000000000000000
     0.031250943821847    -0.012396069366099     0.000000000000000
     0.000000000000000    -0.000000000000000    -0.001195197442154
1 101
     0.055715925358784    -0.174898478317655    -0.000000000000000
    -0.051594295484492     0.149229501151058    -0.000000000000000
    -0.000000000000000    -0.000000000000004     0.004989081439034
1 102
     0.005520390834317     0.022676789498986    -0.000000000000000
    -0.001451926889883    -0.016571345689446    -0.000000000000000
    -0.000000000000000    -0.000000000000004    -0.000057032243090
1 103
    -0.001683070887809     0.013731551049778    -0.000000000000000
     0.003004271885755    -0.002914217126506    -0.000000000000000
     0.000000000000000    -0.000000000000000    -0.000057032243090
1 104
    -0.033953415495850     0.043358090948098    -0.000000000000000
     0.002343404869960     0.013660899633662    -0.000000000000000
    -0.000000000000004    -0.000000000000000    -0.000047113592118
1 105
     0.016759240899818    -0.043661319370106    -0.000000000000000
    -0.029187236637243     0.076891729463485    -0.000000000000000
    -0.000000000000000     0.000000000000000     0.000215730658646
1 106
     0.010271479931321     0.000555408288120    -0.000000000000000
    -0.003401935810263     0.011107435508075    -0.000000000000000
    -0.000000000000000    -0.000000000000004    -0.000054552580347
1 107
     0.003454966262870    -0.000140894014267    -0.000000000000000
    -0.000453176062232     0.003064098348203    -0.000000000000000
    -0.000000000000000    -0.000000000000004    -0.000054552580347
1 108
    -0.012275135750137    -0.003672943596532    -0.000000000000000
    -0.007750074527030     0.011930515674598    -0.000000000000000
    -0.000000000000000     0.000000000000000    -0.000059511905833
1 109
     0.002035816409032    -0.000171012662245    -0.000000000000000
    -0.041649049955955     0.232570250606134     0.000000000000000
    -0.000000000000000     0.000000000000000    -0.012705791895434
1 110
     0.014169547659344    -0.008986587779482    -0.000000000000000
     0.002172493651255     0.016856785652543    -0.000000000000000
    -0.000000000000000     0.000000000000000    -0.000047113592118
1 111
     0.013462525160218    -0.009584876854554    -0.000000000000000
     0.002747983522186     0.001978608348580    -0.000000000000000
    -0.000000000000000     0.000000000000004    -0.000059511905833
1 112
     0.002785209209549    -0.044114630546440    -0.000000000000000
    -0.008769643155578    -0.008895495666556    -0.000000000000000
    -0.000000000000000     0.000000000000004    -0.000089267858750
1 113
    -0.002953669443995    -0.429905413456655    -0.000000000000000
    -0.034968141459107     0.260233824398059    -0.000000000000000
    -0.000000000000000     0.000000000000000     0.737721983024708
1 114
    -0.029077767922466     0.014207323590703    -0.000000000000000
     0.020321435788999    -0.020814945334601    -0.000000000000000
     0.000000000000000    -0.000000000000004     0.003367382005074
1 115
    -0.005474447134015     0.012364981208510    -0.000000000000000
    -0.004470580917495    -0.002913383002998     0.000000000000000
    -0.000000000000000    -0.000000000000000    -0.000007438988229
1 116
    -0.004114513605014     0.069043682331444    -0.000000000000000
    -0.012617891728498     0.004534788468369     0.000000000000000
    -0.000000000000000    -0.000000000000000    -0.000017357639201
1 117
     0.005150799289648    -0.084661477521486    -0.000000000000000
    -0.016490675206436     0.093676064477092     0.000000000000000
     0.000000000000007     0.000000000000000    -0.009849220415430
1 118
    -0.006781290164882     0.005329469235276    -0.000000000000000
    -0.000893538486773     0.001583942280039     0.000000000000000
     0.000000000000007     0.000000000000004    -0.000044633929375
1 119
    -0.001484492005380     0.004820515133019    -0.000000000000000
    -0.001410477511666     0.000846810285269     0.000000000000000
    -0.000000000000000    -0.000000000000000    -0.000057032243090
1 120
     0.011374128738618     0.019868097953729    -0.000000000000000
    -0.004679628168422     0.013734081480507     0.000000000000000
    -0.000000000000000     0.000000000000000    -0.000054552580347
1 121
    -0.007105448494809    -0.015450355926710    -0.000000000000000
    -0.029253458404357     0.086978344498219    -0.000000000000000
    -0.000000000000000     0.000000000000000     0.001361334845939
1 122
    -0.002992976832033    -0.008688974698623    -0.000000000000000
    -0.005276660030422     0.013018718737245     0.000000000000000
    -0.000000000000000    -0.000000000000004    -0.000052072917604
1 123
     0.000104649539582    -0.008295900818245    -0.000000000000000
    -0.000640647072080     0.002282574517562     0.000000000000000
    -0.000000000000000     0.000000000000000    -0.000054552580347
1 124
     0.018765449146430    -0.017474431167887    -0.000000000000000
     0.006979083348234     0.006824560944546     0.000000000000000
     0.000000000000000     0.000000000000000    -0.000052072917604
1 125
    -0.098401706825767     0.065444759140956    -0.000000000000000
    -0.053919275859169    -0.018025237584604    -0.000000000000000
    -0.000000000000000    -0.000000000000000     0.169554379044881
1 126
    -0.003446798493927    -0.016742394876374    -0.000000000000000
    -0.004701670790023     0.010053332373198     0.000000000000000
    -0.000000000000000     0.000000000000004    -0.000163657741042
1 127
    -0.010290878382561    -0.011796300295860    -0.000000000000000
    -0.004191342123358    -0.002152588369047     0.000000000000000
    -0.000000000000000     0.000000000000004    -0.000052072917604
1 128
    -0.026579451597041    -0.072779415651727    -0.000000000000000
     0.001884509965471    -0.026584621293667    -0.000000000000000
     0.000000000000000    -0.000000000000000     0.000800931066008
2 1
    -0.009013643514105    -0.049870355223426     0.000000000000000
    -0.010491848517931    -0.004709883608941     0.000000000000000
    -0.000000000000000     0.000000000000000    -0.004175752059311
2 2
    23.123815066633188    -3.153109005072650     0.000000000000000
    -3.149505352476456    32.280960932246252    -0.000000000000000
    -0.000000000000010     0.000000000000006     3.427523745244125
2 3
    -0.008860497846425    -0.010433303853503     0.000000000000000
    -0.049808522820590    -0.004688809601677     0.000000000000000
    -0.000000000000000     0.000000000000002    -0.004178231722054
2 4
     0.007012029637524    -0.006680724509776     0.000000000000000
    -0.006688076361577    -0.003102061682799     0.000000000000000
    -0.000000000000002    -0.000000000000000    -0.000096706846979
2 5
    -0.006829786292984    -0.004607642654942     0.000000000000000
     0.000263656543940    -0.004281051904185     0.000000000000000
     0.000000000000000    -0.000000000000000    -0.000054552580347
2 6
     0.032558258463281     0.048126026068546     0.000000000000000
    -0.005674518544533    -0.044536485292303     0.000000000000000
    -0.000000000000000    -0.000000000000000    -0.014999479932763
2 7
    -0.010386339182080    -0.006183511575373     0.000000000000000
     0.012576496014558     0.004416477394539     0.000000000000000
     0.000000000000000     0.000000000000000    -0.000109105160695
2 8
    -0.004210484890092    -0.002620832859570     0.000000000000000
     0.001655245709429    -0.000244737360643     0.000000000000000
     0.000000000000000     0.000000000000000    -0.000054552580347
2 9
    -0.008223922354434     0.003506525304321     0.000000000000000
    -0.001757481429348    -0.002226611736874     0.000000000000000
     0.000000000000000    -0.000000000000000    -0.000057032243090
2 10
     0.018472940921161     0.008723687716631     0.000000000000000
     0.008686395747714    -0.017490108261468    -0.000000000000000
     0.000000000000000    -0.000000000000000     0.001247270359759
2 11
    -0.008107021161439    -0.001667756321039     0.000000000000000
     0.003508368714184    -0.002216304391676     0.000000000000000
     0.000000000000000    -0.000000000000000    -0.000054552580347
2 12
    -0.005705186606651     0.000075041377164     0.000000000000000
     0.000037799165288    -0.000672982673719     0.000000000000000
     0.000000000000000    -0.000000000000000    -0.000052072917604
2 13
    -0.010709987026445     0.012375701405249     0.000000000000000
    -0.006385968383942     0.004313314427277     0.000000000000000
    -0.000000000000000     0.000000000000000    -0.000109105160695
2 14
     0.032385203858801    -0.005738878653541     0.000000000000000
     0.047850965065596    -0.044627865373179     0.000000000000000
     0.000000000000000    -0.000000000000000    -0.014992040944534
2 15
    -0.006915037381326     0.000177138488950     0.000000000000000
    -0.004692752634199    -0.004323261371785     0.000000000000000
    -0.000000000000000    -0.000000000000000    -0.000057032243090
2 16
    -0.004402937945811     0.001603435140613     0.000000000000000
    -0.002790873215607    -0.000290733607296     0.000000000000000
    -0.000000000000002    -0.000000000000000    -0.000059511905833
2 17
     0.014863808019495    -0.090404950545057     0.000000000000000
     0.014493877716404    -0.020352987189817     0.000000000000000
    -0.000000000000001     0.000000000000000    -0.000084308533264
2 18
    -0.120611912523886     0.263995564860719     0.000000000000000