 128  128
1 1
    23.134516145753736    -0.119041547359461    -0.000000000000000
    -0.119513692629563    42.783825690483759    -0.000000000000019
    -0.000000000000014    -0.000000000000009     9.513557162861943
1 2
     0.319535485871841     0.039117203693851     0.000000000000000
    -0.040304903274547     0.183017522433772     0.000000000000000
    -0.000000000000000     0.000000000000007    -0.143166200239570
1 3
     0.073119432088922    -0.000334434836978    -0.000000000000000
     0.000769221446873    -0.105885206916639    -0.000000000000000
    -0.000000000000000     0.000000000000007     0.129494320362793
1 4
     0.320024197173828    -0.039061379972963     0.000000000000000
     0.041141776560132     0.183316801205520     0.000000000000000
    -0.000000000000000     0.000000000000007    -0.143192492316256
1 5
    -0.034323468534381    -0.006954620646350    -0.000000000000000
     0.003967668975516     0.000620560122383    -0.000000000000000
     0.000000000000000     0.000000000000007     0.007586724794869
1 6
    -0.018345704638464    -0.001292572882826    -0.000000000000000
     0.227241473018191     0.052474446428819     0.000000000000000
    -0.000000000000000     0.000000000000007    -0.008357959044329
1 7
     0.023992527750834     0.001523987580339    -0.000000000000000
     0.000589250285454     0.086333172712451    -0.000000000000000
     0.000000000000000     0.000000000000007     0.046241920207157
1 8
    -0.007090627529976     0.005905134693587     0.000000000000000
    -0.229850817866513     0.048294611416734     0.000000000000000
     0.000000000000000     0.000000000000007    -0.006602232590067
1 9
     0.306508259369230    -0.003391037299978    -0.000000000000000
    -0.002273655228183     0.523902922998017    -0.000000000000000
    -0.000000000000000     0.000000000000010     0.071821189480887
1 10
    -0.136090111719752    -0.184886133639464    -0.000000000000000
     0.186431327092621    -0.085630143850604    -0.000000000000000
     0.000000000000000     0.000000000000007     0.004706281726813
1 11
     0.005671182554214    -0.001267705952611     0.000000000000000
     0.000652731006881     0.071263334791929     0.000000000000000
     0.000000000000000     0.000000000000007    -0.090993956068768
1 12
    -0.137040129951653     0.184591282895482    -0.000000000000000
    -0.188164796385425    -0.085183247305091    -0.000000000000000
     0.000000000000000     0.000000000000007     0.004677068308273
1 13
    -0.040782273041538     0.009215481342458    -0.000000000000000
    -0.003367281641835     0.006430885640715    -0.000000000000000
     0.000000000000000     0.000000000000007     0.007589646136723
1 14
    -0.002344088789075    -0.230573281793886    -0.000000000000000
     0.005225286650846     0.048467256476868     0.000000000000000
     0.000000000000000     0.000000000000007    -0.006613917957483
1 15
     0.024051903890328    -0.001829495580128    -0.000000000000000
    -0.000392452013009     0.080643519337722    -0.000000000000000
     0.000000000000000     0.000000000000007     0.046218549472325
1 16
    -0.016623289104772     0.226874199052260     0.000000000000000
    -0.003739672184610     0.052245240179094     0.000000000000000
     0.000000000000000     0.000000000000007    -0.008387172462869
1 17
    -0.071647715810871     0.016958738918495    -0.000000000000000
     0.012886679199985    -1.710702115143956    -0.000000000000000
     0.000000000000000    -0.000000000000006     0.229050729405670
1 18
     0.071407166322665     0.069237146045099    -0.000000000000000
     0.065721139671629    -0.164483394692518    -0.000000000000000
    -0.000000000000000    -0.000000000000007     0.009012339619627
1 19
     0.084545025290315    -0.001297647766543     0.000000000000000
     0.001381610131533    -0.055029556580442     0.000000000000000
    -0.000000000000000    -0.000000000000007    -0.031071391959272
1 20
     0.079171738410314    -0.070781940648678    -0.000000000000000
    -0.065522469503635    -0.164038713182800    -0.000000000000000
    -0.000000000000000    -0.000000000000007     0.007046276551877
1 21
     0.187254074382011     0.007490528366907     0.000000000000000
     0.007480980700999    -0.688172694025541     0.000000000000000
    -0.000000000000000    -0.000000000000007    -0.067228840086380
1 22
    -0.146058198317503     0.189866624519738    -0.000000000000000
     0.190695144007039     0.055639834180618     0.000000000000000
    -0.000000000000000    -0.000000000000007    -0.005486280001835
1 23
     0.037328814671835     0.000541997581021    -0.000000000000000
     0.001748160210940    -0.087854366003374    -0.000000000000000
    -0.000000000000000    -0.000000000000011     0.087315986674567
1 24
    -0.135842964882714    -0.195267823260183     0.000000000000000
    -0.197266647176064     0.051643332111708     0.000000000000000
     0.000000000000000    -0.000000000000011    -0.005287628755762
1 25
     0.183896531314567    -0.003950289485637    -0.000000000000000
     0.001784305952318    -0.146068709074654    -0.000000000000000
    -0.000000000000000    -0.000000000000011     0.016505581475168
1 26
    -0.110891791597659     0.169691931789517    -0.000000000000000
     0.173384209527128     0.090363577720636    -0.000000000000000
    -0.000000000000000    -0.000000000000007     0.004063586518931
1 27
    -0.036303688160917     0.003240820741943    -0.000000000000000
     0.001016750336148    -0.057667807199886     0.000000000000000
    -0.000000000000000    -0.000000000000011    -0.063089298679245
1 28
    -0.114797929594955    -0.168686597325096    -0.000000000000000
    -0.174715042752428     0.085715109313154    -0.000000000000000
     0.000000000000000    -0.000000000000007     0.005629425752681
1 29
    -1.600112358566821    -0.021359678078237    -0.000000000000000
    -0.020005787221866    -2.080475016040350    -0.000000000000002
     0.000000000000001    -0.000000000000010     1.232850082520904
1 30
     0.323203104334418    -0.037112624625473    -0.000000000000000
    -0.037854648039792    -0.184449536322508    -0.000000000000000
    -0.000000000000000    -0.000000000000007     0.123748040935951
1 31
     0.017454047569314     0.000366406604399     0.000000000000000
    -0.001022039297098     0.068298858282886     0.000000000000000
    -0.000000000000000    -0.000000000000007    -0.126908932821992
1 32
     0.318199268989045     0.048068791083007    -0.000000000000000
     0.047557300420663    -0.185279121306524    -0.000000000000000
    -0.000000000000000    -0.000000000000011     0.122754784705587
1 33
     0.806929348046095     0.014623784920110    -0.000000000000000
     0.006711619929810    -1.045620718447161    -0.000000000000001
    -0.000000000000000     0.000000000000004     0.759721241212525
1 34
     0.005969585716798    -0.027785495841232    -0.000000000000000
    -0.081229829633857     0.147968911418916    -0.000000000000000
    -0.000000000000000     0.000000000000003     0.014843337960235
1 35
    -0.004526288787565    -0.000172546046393    -0.000000000000000
    -0.000422727586101    -0.014289100534985    -0.000000000000000
    -0.000000000000000     0.000000000000004     0.023446689720301
1 36
     0.001554944371017     0.023943808867148    -0.000000000000000
     0.080320252374795     0.146996505647546    -0.000000000000000
    -0.000000000000000     0.000000000000003     0.015468505116994
1 37
    -0.109359176714999    -0.008453233808102    -0.000000000000000
    -0.004993207963667     0.494620490432228    -0.000000000000000
    -0.000000000000000     0.000000000000003     0.040530696882563
1 38
     0.040012413181606    -0.130945194607034     0.000000000000000
    -0.088118509534150     0.007784337577403     0.000000000000000
    -0.000000000000000     0.000000000000004    -0.002944712588844
1 39
     0.018721753521925     0.003159115114093    -0.000000000000000
     0.000092119911414    -0.035921936761922     0.000000000000000
    -0.000000000000000     0.000000000000004    -0.045006192602910
1 40
     0.036278821230702     0.132403208699047     0.000000000000000
     0.089563363326169     0.010107549432969     0.000000000000000
    -0.000000000000000     0.000000000000004    -0.002830780256538
1 41
    -0.043780006853416    -0.000486681348500    -0.000000000000000
    -0.001111961460698     0.220582978745623     0.000000000000000
    -0.000000000000000     0.000000000000003    -0.001647636805663
1 42
     0.015337313570779    -0.161686810213661    -0.000000000000000
    -0.003499166886404    -0.100255759615802     0.000000000000000
    -0.000000000000000     0.000000000000004    -0.002468533866640
1 43
    -0.003183982044308     0.000431365115980    -0.000000000000000
     0.000155315234146    -0.051394945098391    -0.000000000000000
    -0.000000000000000     0.000000000000004     0.015164685564177
1 44
     0.015572788175267     0.164285658165352     0.000000000000000
     0.004103671624055    -0.095213304594126     0.000000000000000
    -0.000000000000000     0.000000000000004    -0.003263138850931
1 45
     0.377157238064513     0.016987665755683    -0.000000000000000
     0.009970776440257    -0.760500913899206    -0.000000000000000
    -0.000000000000000     0.000000000000004     0.148988434554616
1 46
    -0.100133545605106     0.069862879207454     0.000000000000000
     0.072938712834404     0.024635981987748     0.000000000000000
    -0.000000000000000     0.000000000000004    -0.024749608187190
1 47
    -0.024555332355096    -0.001594020975642    -0.000000000000000
     0.000021808509671     0.019804417896898    -0.000000000000000
    -0.000000000000000     0.000000000000004     0.036338571322056
1 48
    -0.097101810072321    -0.072612451205552    -0.000000000000000
    -0.076172946007364     0.027002316986052     0.000000000000000
    -0.000000000000000     0.000000000000004    -0.024331856302067
1 49
    -0.172734324578105    -0.031084170257553     0.000000000000000
     0.870343171355088     0.051486298380484     0.000000000000000
    -0.000000000000022    -0.000000000000000    -0.007081332654125
1 50
     0.099392105093994    -0.015707272593779    -0.000000000000000
     0.692142908649696    -0.014786523155618    -0.000000000000000
    -0.000000000000022     0.000000000000000     0.003461790097004
1 51
     0.081495527664519     0.004673967903741    -0.000000000000000
     0.013537294991451    -0.013062683646596    -0.000000000000000
    -0.000000000000021    -0.000000000000000     0.000391459808438
1 52
    -0.044322004434438     0.015441348686986     0.000000000000000
    -0.003896840256559     0.000220429433460     0.000000000000000
    -0.000000000000021    -0.000000000000000    -0.001779097189093
1 53
     0.450765888943792    -0.005270266740538     0.000000000000000
     0.389949769727906     0.002337411213989    -0.000000000000000
    -0.000000000000021    -0.000000000000000     0.000014606709270
1 54
    -0.467502347955463    -0.006590243995438    -0.000000000000000
     0.330182906318658     0.001397980456988     0.000000000000000
    -0.000000000000029     0.000000000000000    -0.000224943322759
1 55
     0.000004059906978     0.000399393348561     0.000000000000000
    -0.325311946412640     0.000693602702142     0.000000000000000
    -0.000000000000021    -0.000000000000000    -0.000335954313211
1 56
     0.014145730873935     0.003679798183499     0.000000000000000
    -0.355223742269470    -0.000899226932974     0.000000000000000
    -0.000000000000028    -0.000000000000000    -0.000514156166306
1 57
     0.303844452905956     0.013641287432418    -0.000000000000000
     0.161381131618160    -0.012579680280170    -0.000000000000000
    -0.000000000000021    -0.000000000000000     0.004960438468112
1 58
    -0.300265137420059     0.003486952602237     0.000000000000000
     0.149149391868370     0.016785005252006     0.000000000000000
    -0.000000000000021    -0.000000000000000    -0.003897070033252
1 59
    -0.058571770424575    -0.005613836368207     0.000000000000000
    -0.109914977715324     0.014725780739826     0.000000000000000
    -0.000000000000021    -0.000000000000000    -0.001735277061283
1 60
     0.060661100051032    -0.014795823478130    -0.000000000000000
    -0.127951339089059     0.001525477670511    -0.000000000000000
    -0.000000000000021     0.000000000000000     0.001267862364641
1 61
    -5.983523884927969    -0.639484574766651    -0.000000000000000
    -1.446871359734047     0.186991099894807    -0.000000000000001
    -0.000000000000021     0.000000000000000     0.286703410894599
1 62
     3.091283203348588     0.129387205305787    -0.000000000000000
    -1.571808012036264    -0.122149073462197    -0.000000000000001
    -0.000000000000021    -0.000000000000000     0.254066179701576
1 63
     0.281907253060680    -0.001340784278142     0.000000000000000
    -0.027850937657238    -0.001926553361021     0.000000000000000
    -0.000000000000021    -0.000000000000000    -0.003008982109632
1 64
    -0.316387028013555    -0.008468965947626    -0.000000000000000
    -0.026589014696349    -0.001248902068761    -0.000000000000000
    -0.000000000000021     0.000000000000000     0.004437518276244
1 65
    -4.352996733265927     0.104526364950902     0.000000000000000
     0.104285356214038   -21.859672899908936     0.000000000000009
     0.000000000000003     0.000000000000005    -4.545511520561600
1 66
    -0.105264760531787    -0.097359106676794    -0.000000000000000
     0.082911957670777    -0.052155464625052    -0.000000000000000
     0.000000000000000    -0.000000000000004     0.024591855727074
1 67
    -0.008840954924113     0.002152258184557     0.000000000000000
     0.000205168347581    -0.000357725164964     0.000000000000000
     0.000000000000000    -0.000000000000004    -0.032578804355943
1 68
    -0.103584466532950     0.100519744256002    -0.000000000000000
    -0.082446007046653    -0.050250377218299    -0.000000000000000
     0.000000000000000    -0.000000000000004     0.025252078986080
1 69
     0.078724133666437     0.007633132599367     0.000000000000000
     0.001209101111078    -0.320576898254654     0.000000000000000
     0.000000000000000    -0.000000000000003    -0.005497965369251
1 70
     0.001326067115361     0.058268799866643    -0.000000000000000
    -0.011771711895914    -0.033660081916238    -0.000000000000000
     0.000000000000000    -0.000000000000004     0.002401343003998
1 71
    -0.036908614300033    -0.003852344229891     0.000000000000000
    -0.000238437253249    -0.018608445271563     0.000000000000000
     0.000000000000000    -0.000000000000004    -0.004130777381573
1 72
     0.000055316232520    -0.059515191307641    -0.000000000000000
     0.013563476181050    -0.033224868852185    -0.000000000000000
     0.000000000000000    -0.000000000000004     0.001597973994145
1 73
    -0.072981395251808     0.001689428789529     0.000000000000000
     0.002327544518585    -0.287324591878629     0.000000000000000
     0.000000000000000    -0.000000000000003    -0.035503067551809
1 74
     0.048034789362099     0.179483919922273    -0.000000000000000
    -0.086783946816700     0.088736374103654    -0.000000000000000
     0.000000000000000    -0.000000000000004     0.001551232524480
1 75
     0.006326350042133    -0.000164933720816    -0.000000000000000
    -0.000674353558133     0.085019303218001    -0.000000000000000
     0.000000000000000    -0.000000000000004     0.039175194262302
1 76
     0.048911221780097    -0.179964003921940    -0.000000000000000
     0.085861517505313     0.084144984105021    -0.000000000000000
     0.000000000000000    -0.000000000000004     0.001761569137969
1 77
     0.076874338551439    -0.013493100827869    -0.000000000000000
    -0.000886122236063     0.383619052600208     0.000000000000000
     0.000000000000000    -0.000000000000004    -0.054973811008799
1 78
     0.016624811569888     0.108110247832143     0.000000000000000
    -0.080661978971207    -0.081753528876181     0.000000000000000
     0.000000000000000    -0.000000000000004    -0.017230074254963
1 79
     0.029408951142434    -0.000267953860280     0.000000000000000
     0.000426134923177     0.015683311071006     0.000000000000000
     0.000000000000000    -0.000000000000004    -0.035897448702100
1 80
     0.021162265101631    -0.106768448577258     0.000000000000000
     0.080933020596676    -0.085698238610246     0.000000000000000
     0.000000000000000    -0.000000000000004    -0.016537716235562
1 81
    -5.989717273016709     0.636041773652755    -0.000000000000000
     1.390419647499613     0.169901258165650    -0.000000000000001
     0.000000000000028    -0.000000000000001     0.279820729486546
1 82
    -0.310504730296699     0.010517696504348    -0.000000000000000
     0.027113051297896    -0.000954891026166    -0.000000000000000
     0.000000000000028    -0.000000000000000     0.004063586518931
1 83
     0.290430012775705     0.001055575813223     0.000000000000000
     0.027276486282474    -0.003478515615925     0.000000000000000
     0.000000000000021     0.000000000000000    -0.002085838083765
1 84
     3.076940059498050    -0.137513109114116    -0.000000000000000
     1.601962904291909    -0.121256356326196    -0.000000000000000
     0.000000000000021     0.000000000000000     0.248693832032048
1 85
    -0.152930098359260     0.030345774676669     0.000000000000000
    -0.877755044485106     0.052282256881050     0.000000000000000
     0.000000000000022    -0.000000000000000    -0.007154366200476
1 86
    -0.065379219443120    -0.015533204082271    -0.000000000000000
    -0.001850170690975     0.000894104469055     0.000000000000000
     0.000000000000028     0.000000000000000    -0.001808310607633
1 87
     0.062954947491303    -0.004318218555150    -0.000000000000000
    -0.007836167678946    -0.012588304189591    -0.000000000000000
     0.000000000000021     0.000000000000000     0.000718650096087
1 88
     0.117302892197873     0.016361932593325    -0.000000000000000
    -0.687036163924070    -0.011889912205842    -0.000000000000000
     0.000000000000022    -0.000000000000000     0.003502688882960
1 89
     0.460730930611312     0.006921126413814    -0.000000000000000
    -0.382127107949113     0.007082870133535    -0.000000000000000
     0.000000000000021    -0.000000000000000     0.001039997700028
1 90
     0.005406273624160    -0.005278386554486    -0.000000000000000
     0.351742164355134    -0.000777674122263     0.000000000000000
     0.000000000000028     0.000000000000000    -0.000622245814905
1 91
    -0.005553445251973    -0.001782806649929    -0.000000000000000
     0.328899411964489     0.001145172234177     0.000000000000000
     0.000000000000021     0.000000000000000    -0.001305839808743
1 92
    -0.459310978147183     0.007906668831736    -0.000000000000000
    -0.338852351849088    -0.001223578824391     0.000000000000000
     0.000000000000021    -0.000000000000000    -0.000184044536803
1 93
     0.277530673342774    -0.012160943852047    -0.000000000000000
    -0.155179623504829    -0.011563392972595    -0.000000000000000
     0.000000000000021     0.000000000000000     0.004475495720346
1 94
     0.075137713343338     0.013351004083782    -0.000000000000000
     0.129734570189399     0.001391990257536    -0.000000000000000
     0.000000000000021    -0.000000000000000     0.001375952013240
1 95
    -0.042347367179993     0.004329890787701    -0.000000000000000
     0.108318549716056     0.015192401125989     0.000000000000000
     0.000000000000028    -0.000000000000000    -0.001197750160145
1 96
    -0.326206928006759    -0.002274562882146    -0.000000000000000
    -0.156048257645541     0.016050299694394     0.000000000000000
     0.000000000000021    -0.000000000000000    -0.003975946263310
1 97
     0.274714620367984    -0.143765365853974     0.000000000000000
    -0.591238870772560     0.505479983604760     0.000000000000000
     0.000000000000029    -0.000000000000000    -0.022321973106506
1 98
    -0.092116244308329     0.001767074510405     0.000000000000000
    -0.501910164093182    -0.033829203552594     0.000000000000000
     0.000000000000029    -0.000000000000000    -0.012065141857070
1 99
    -0.079914193898173     0.024845108215360    -0.000000000000000
    -0.017166057231325     0.003137253558826     0.000000000000000
     0.000000000000028    -0.000000000000000    -0.012149860770836
1 100
     0.004776480554831     0.033111078814290    -0.000000000000000
     0.034102501356660     0.080344634931451     0.000000000000000
     0.000000000000028    -0.000000000000000    -0.000864717188788
1 101
    -0.402192146930908    -0.038768051694095     0.000000000000000
    -0.225631943432660     0.030651741872394     0.000000000000000
     0.000000000000029    -0.000000000000000    -0.004545607924843
1 102
     0.357305815427086    -0.010812039759958    -0.000000000000000
    -0.336297018165830    -0.003997219604482     0.000000000000000
     0.000000000000029    -0.000000000000000    -0.003417969969194
1 103
    -0.015264235245251     0.012182765852032    -0.000000000000000
     0.223812075561749     0.000845360142577    -0.000000000000000
     0.000000000000028    -0.000000000000000     0.001393480064364
1 104
     0.067105694883782     0.005342330089325    -0.000000000000000
     0.272325933552739    -0.001528522429002    -0.000000000000000
     0.000000000000028    -0.000000000000000     0.002524039361866
1 105
    -0.208087487018751     0.031814953512861     0.000000000000000
    -0.053903303863528    -0.032159202996240     0.000000000000000
     0.000000000000028    -0.000000000000000    -0.021664671189354
1 106
     0.202142260743795    -0.003291062090745    -0.000000000000000
    -0.142950557915704     0.025019595514438    -0.000000000000000
     0.000000000000028    -0.000000000000000     0.012804241346135
1 107
     0.035760168114777    -0.024895349564163    -0.000000000000000
     0.097419253011669    -0.015658688832042    -0.000000000000000
     0.000000000000028    -0.000000000000000     0.011843119876165
1 108
     0.006549644925698    -0.041800802203624     0.000000000000000
     0.114028891989300    -0.092344341612416     0.000000000000000
     0.000000000000014     0.000000000000000    -0.000867638530642
1 109
    -5.230882090472210    -6.415209226071022     0.000000000000000
    -6.053008605710787    -8.407692871856218     0.000000000000008
     0.000000000000031     0.000000000000007    -4.084748719321253
1 110
    -1.642301389374829    -0.041790144947817     0.000000000000000
     0.760654325958868     0.019910755902870     0.000000000000000
     0.000000000000028    -0.000000000000000    -0.031524199946644
1 111
    -0.186828799126499    -0.025975792307601    -0.000000000000000
     0.023907179190815     0.012898540878993     0.000000000000000
     0.000000000000028    -0.000000000000000    -0.002509432652596
1 112
     0.187099797916996     0.000765799952958    -0.000000000000000
     0.156220714880675     0.015408225082868    -0.000000000000000
     0.000000000000028    -0.000000000000000     0.002973926007384
1 113
    -5.306450153954778     6.436709478428233     0.000000000000000
     6.103435801621838    -8.312364573553879     0.000000000000008
    -0.000000000000024    -0.000000000000000    -4.082589847691139
1 114
     0.187567194707377    -0.003468175532483    -0.000000000000000
    -0.158130652706703     0.009700456896152    -0.000000000000000
    -0.000000000000028     0.000000000000000     0.004720888436084
1 115
    -0.193738760796130     0.024959800587374    -0.000000000000000
    -0.023059680178566     0.015057018349674     0.000000000000000
    -0.000000000000014     0.000000000000000    -0.003032352844465
1 116
    -1.634162290868829     0.032290977605555     0.000000000000000
    -0.779194165520206     0.004640797188453     0.000000000000000
    -0.000000000000028     0.000000000000000    -0.027743983587553
1 117
     0.262477045771799     0.138910732089893     0.000000000000000
     0.586894673412296     0.513302065296237     0.000000000000000
    -0.000000000000014    -0.000000000000000    -0.020469842371063
1 118
     0.010881058178519    -0.034425981185473     0.000000000000000
    -0.027406849967175     0.078375653604313     0.000000000000000
    -0.000000000000028     0.000000000000000    -0.000899773291036
1 119
    -0.075409219622223    -0.025515500354431     0.000000000000000
     0.011971453003873     0.002651312487480     0.000000000000000
    -0.000000000000028     0.000000000000000    -0.012532556553712
1 120
    -0.105933630205740    -0.001840152835936     0.000000000000000
     0.498890165058988    -0.031861581610999     0.000000000000000
    -0.000000000000029     0.000000000000000    -0.012100197959318
1 121
    -0.405261944091567     0.034288959325102    -0.000000000000000
     0.219665083610963     0.021250996507503     0.000000000000000
    -0.000000000000029     0.000000000000000    -0.006105604474885
1 122
     0.071913132229295     0.001394070557175    -0.000000000000000
    -0.268289795775061    -0.001480214158501    -0.000000000000000
    -0.000000000000014     0.000000000000000     0.002562016805969
1 123
    -0.013672751711464    -0.010409093992795    -0.000000000000000
    -0.226484267819011    -0.001914579208077    -0.000000000000000
    -0.000000000000028     0.000000000000000     0.002667185112713
1 124
     0.351429100082324     0.008472010877857     0.000000000000000
     0.342766508574588     0.002807939438034     0.000000000000000
    -0.000000000000029     0.000000000000000    -0.003222240064975
1 125
    -0.195920453306247    -0.035563262626546     0.000000000000000
     0.054601452375096    -0.036302381699681     0.000000000000000
    -0.000000000000028     0.000000000000000    -0.020452314319939
1 126
    -0.003742219253226     0.046704662339764    -0.000000000000000
    -0.118017233354955    -0.092075490537505     0.000000000000000
    -0.000000000000028     0.000000000000000    -0.000920222684014
1 127
     0.022030070217308     0.024930366261813    -0.000000000000000
    -0.095932860330041    -0.017599584403698    -0.000000000000000
    -0.000000000000028     0.000000000000000     0.011159525882326
1 128
     0.212102227527602     0.000152246511523    -0.000000000000000
     0.145607104095316     0.027804679764338    -0.000000000000000
    -0.000000000000028     0.000000000000000     0.012795477320573
2 1
     0.320024197173828    -0.039061379972963     0.000000000000000
     0.041141776560132     0.183316801205520     0.000000000000000
    -0.000000000000000     0.000000000000007    -0.143192492316256
2 2
    23.134516145753736    -0.119041547359461    -0.000000000000000
    -0.119513692629563    42.783825690483759    -0.000000000000019
    -0.000000000000014    -0.000000000000009     9.513557162861943
2 3
     0.319535485871841     0.039117203693851     0.000000000000000
    -0.040304903274547     0.183017522433772     0.000000000000000
    -0.000000000000000     0.000000000000007    -0.143166200239570
2 4
     0.073119432088922    -0.000334434836978    -0.000000000000000
     0.000769221446873    -0.105885206916639    -0.000000000000000
    -0.000000000000000     0.000000000000007     0.129494320362793
2 5
    -0.007090627529976     0.005905134693587     0.000000000000000
    -0.229850817866513     0.048294611416734     0.000000000000000
     0.000000000000000     0.000000000000007    -0.006602232590067
2 6
    -0.034323468534381    -0.006954620646350    -0.000000000000000
     0.003967668975516     0.000620560122383    -0.000000000000000
     0.000000000000000     0.000000000000007     0.007586724794869
2 7
    -0.018345704638464    -0.001292572882826     0.000000000000000
     0.227241473018191     0.052474446428819     0.000000000000000
    -0.000000000000000     0.000000000000007    -0.008357959044329
2 8
     0.023992527750834     0.001523987580339     0.000000000000000
     0.000589250285454     0.086333172712451    -0.000000000000000
     0.000000000000000     0.000000000000007     0.046241920207157
2 9
    -0.137040129951653     0.184591282895482     0.000000000000000
    -0.188164796385425    -0.085183247305091    -0.000000000000000
     0.000000000000000     0.000000000000007     0.004677068308273
2 10
     0.306508259369230    -0.003391037299978    -0.000000000000000
    -0.002273655228183     0.523902922998017    -0.000000000000000
    -0.000000000000000     0.000000000000010     0.071821189480887
2 11
    -0.136090111719752    -0.184886133639464     0.000000000000000
     0.186431327092621    -0.085630143850604    -0.000000000000000
     0.000000000000000     0.000000000000007     0.004706281726813
2 12
     0.005671182554214    -0.001267705952611     0.000000000000000
     0.000652731006881     0.071263334791929     0.000000000000000
     0.000000000000000     0.000000000000007    -0.090993956068768
2 13
    -0.016623289104772     0.226874199052260     0.000000000000000
    -0.003739672184610     0.052245240179094     0.000000000000000
     0.000000000000000     0.000000000000007    -0.008387172462869
2 14
    -0.040782273041538     0.009215481342458    -0.000000000000000
    -0.003367281641835     0.006430885640715    -0.000000000000000
     0.000000000000000     0.000000000000007     0.007589646136723
2 15
    -0.002344088789075    -0.230573281793886     0.000000000000000
     0.005225286650846     0.048467256476868     0.000000000000000
     0.000000000000000     0.000000000000007    -0.006613917957483
2 16
     0.024051903890328    -0.001829495580128    -0.000000000000000
    -0.000392452013009     0.080643519337722    -0.000000000000000
     0.000000000000000     0.000000000000007     0.046218549472325
2 17
     0.079171738410314    -0.070781940648678    -0.000000000000000
    -0.065522469503635    -0.164038713182800    -0.000000000000000
    -0.000000000000000    -0.000000000000007     0.007046276551877
2 18
    -0.071647715810871     0.016958738918495     0.000000000000000