  64   64
1 1
    21.953231247887000    -0.000000000000000    -0.000000000000000
    -0.000000000000002    42.441949964753817     0.000000000000000
     0.000000000000005    -0.000000000000007    11.637549484898345
1 2
    -0.505370802225399     0.263628739357902    -0.000000000000000
    -0.264379008675882     0.504413038512078    -0.000000000000000
    -0.000000000000000    -0.000000000000007    -0.213313598645225
1 3
    -4.440390788572527    -0.000000000000000    -0.000000000000000
     0.000000000000000    -0.761116181299355     0.000000000000000
    -0.000000000000001    -0.000000000000007     0.099049552422770
1 4
    -0.505370802225399    -0.263628739357902    -0.000000000000000
     0.264379008675882     0.504413038512086    -0.000000000000000
    -0.000000000000000    -0.000000000000007    -0.213313598645225
1 5
     0.248480106410197    -0.000000000000000    -0.000000000000000
    -0.000000000000000     0.014653445843742     0.000000000000000
     0.000000000000000    -0.000000000000007     0.515419583258766
1 6
    -3.855987992894640     0.089787727438125    -0.000000000000000
     0.468279205165600     0.214398418678964    -0.000000000000000
    -0.000000000000001    -0.000000000000011    -0.011098290476650
1 7
     0.021214808460531    -0.000000000000000    -0.000000000000000
    -0.000000000000000     0.365365444175870     0.000000000000000
     0.000000000000000    -0.000000000000007     0.010517839124396
1 8
    -3.855987992894640    -0.089787727438125    -0.000000000000000
    -0.468279205165599     0.214398418678968    -0.000000000000000
    -0.000000000000001    -0.000000000000011    -0.011098290476650
1 9
    -3.281533520465019    -0.000000000000000    -0.000000000000000
     0.000000000000000     0.054738718794580     0.000000000000000
    -0.000000000000001    -0.000000000000011     0.051110029773938
1 10
    -0.195226801477635     0.209975382498907    -0.000000000000000
    -0.208677683012341     0.185073577101061     0.000000000000000
    -0.000000000000000    -0.000000000000011     0.010501168197830
1 11
    -3.661482015573040    -0.000000000000000    -0.000000000000000
     0.000000000000000    -0.578714322202808    -0.000000000000000
    -0.000000000000000    -0.000000000000011    -0.001436730762237
1 12
    -0.195226801477635    -0.209975382498907    -0.000000000000000
     0.208677683012341     0.185073577101061     0.000000000000000
    -0.000000000000000    -0.000000000000007     0.010501168197830
1 13
     0.250363090546133    -0.000000000000000    -0.000000000000000
    -0.000000000000000     0.021497633475901     0.000000000000000
     0.000000000000000    -0.000000000000011     0.515292278001353
1 14
    -3.855435227082131    -0.465676152173101    -0.000000000000000
    -0.093182456667942     0.238626195292923    -0.000000000000000
    -0.000000000000001    -0.000000000000014    -0.010936127827326
1 15
     0.022364181392556    -0.000000000000000    -0.000000000000000
    -0.000000000000000     0.373979983746208     0.000000000000000
     0.000000000000000    -0.000000000000007     0.010493590503936
1 16
    -3.855435227082131     0.465676152173101    -0.000000000000000
     0.093182456667942     0.238626195292920    -0.000000000000000
    -0.000000000000000    -0.000000000000007    -0.010936127827326
1 17
    -9.201612261819921    -0.000000000000000    -0.000000000000000
     0.000000000000001   -13.709689879304554    -0.000000000000000
    -0.000000000000002    -0.000000000000004    -5.886555698789158
1 18
     5.308670796593578    -0.421724511210459    -0.000000000000000
    -0.617964749269481    -0.783714389429466     0.000000000000000
     0.000000000000001    -0.000000000000005     0.058011793372281
1 19
    -0.813004888147031    -0.000000000000000    -0.000000000000000
     0.000000000000000     0.576577229366114    -0.000000000000000
    -0.000000000000000    -0.000000000000005    -0.014679508610792
1 20
     5.308670796593577     0.421724511210459    -0.000000000000000
     0.617964749269480    -0.783714389429464     0.000000000000000
     0.000000000000001    -0.000000000000005     0.058011793372281
1 21
     4.332032614174823    -0.000000000000000    -0.000000000000000
    -0.000000000000000    -0.211217416528416    -0.000000000000000
     0.000000000000000    -0.000000000000004    -0.090132122248715
1 22
     0.109568194471089    -0.100644296429879    -0.000000000000000
     0.149268473120434    -0.169608866601755    -0.000000000000000
     0.000000000000000    -0.000000000000004    -0.007414015705554
1 23
     4.326729277403914    -0.000000000000000    -0.000000000000000
    -0.000000000000000    -0.379716909510067     0.000000000000000
     0.000000000000001    -0.000000000000005     0.000233392971925
1 24
     0.109568194471089     0.100644296429879    -0.000000000000000
    -0.149268473120434    -0.169608866601754    -0.000000000000000
     0.000000000000000    -0.000000000000004    -0.007414015705554
1 25
    -0.161808034523345    -0.000000000000000    -0.000000000000000
     0.000000000000000    -0.136870378215033     0.000000000000000
    -0.000000000000000    -0.000000000000005     0.056611435540733
1 26
     4.255966850485561    -0.347900499686141    -0.000000000000000
     0.047818860055711    -0.369714948997327     0.000000000000000
     0.000000000000001    -0.000000000000005     0.002621882087205
1 27
     0.370874805934539    -0.000000000000000    -0.000000000000000
    -0.000000000000000     0.602049883674964    -0.000000000000000
     0.000000000000000    -0.000000000000005    -0.015373625371451
1 28
     4.255966850485561     0.347900499686141    -0.000000000000000
    -0.047818860055712    -0.369714948997330     0.000000000000000
     0.000000000000001    -0.000000000000004     0.002621882087205
1 29
     7.393718785835705    -0.000000000000000    -0.000000000000000
    -0.000000000000001    -7.017362543659528     0.000000000000000
     0.000000000000001    -0.000000000000004     1.632674770939563
1 30
     0.621067280727571     0.286323922618361    -0.000000000000000
     0.084209271247706    -0.174230787407344     0.000000000000000
     0.000000000000000    -0.000000000000004     0.510347074966352
1 31
     5.223939433230220    -0.000000000000000    -0.000000000000000
    -0.000000000000000    -0.231625386067816    -0.000000000000000
     0.000000000000001    -0.000000000000004    -0.041392395124712
1 32
     0.621067280727571    -0.286323922618361    -0.000000000000000
    -0.084209271247706    -0.174230787407346     0.000000000000000
     0.000000000000000    -0.000000000000005     0.510347074966352
1 33
     1.549431069312823    -0.543005276192607    -0.000000000000000
    -1.002032923394195    -1.718925854061384     0.000000000000000
    -0.000000000000001     0.000000000000007     0.652051466316518
1 34
    -1.207250764158379    -4.832797521754946    -0.000000000000000
     0.174244865752780     0.533355301052847    -0.000000000000000
    -0.000000000000003     0.000000000000005    -0.041119598144541
1 35
     0.719178645645140     0.213316820781266    -0.000000000000000
     0.183896275464241     0.149801690453696    -0.000000000000000
    -0.000000000000002     0.000000000000007    -0.003079574798382
1 36
    -1.126826809208430    -4.838062497382221    -0.000000000000000
    -0.640129696318894    -0.821990594992186    -0.000000000000000
    -0.000000000000002     0.000000000000007    -0.058625586577667
1 37
    -0.214455233386539    -3.911904291883629    -0.000000000000000
    -0.336345398776581    -0.146706918168935    -0.000000000000000
    -0.000000000000002     0.000000000000007    -0.066900428309541
1 38
    -0.266258852434079    -0.250143884011100    -0.000000000000000
    -0.120257578645682    -0.125233921797541     0.000000000000000
    -0.000000000000002     0.000000000000007     0.002115692135109
1 39
    -0.082751563007779    -4.309274957051880    -0.000000000000000
    -0.216983554859063     0.055026269000036     0.000000000000000
    -0.000000000000003     0.000000000000005     0.000186411269784
1 40
    -0.095793255809590    -0.302167805626349    -0.000000000000000
    -0.228833650168491     0.324475241824905     0.000000000000000
    -0.000000000000002     0.000000000000007     0.000178833575890
1 41
    -0.526968491433789     0.355174137862774    -0.000000000000000
    -0.036366829963393     0.121381734528489    -0.000000000000000
    -0.000000000000002     0.000000000000007    -0.119385051755788
1 42
     0.422046744816958    -4.365202947056074    -0.000000000000000
     0.044274636593002    -0.120293126467903    -0.000000000000000
    -0.000000000000002     0.000000000000004    -0.007656501910151
1 43
    -0.768457370753321    -0.283199133461460    -0.000000000000000
     0.144452623106507    -0.016268584023519     0.000000000000000
    -0.000000000000002     0.000000000000007     0.003234159753813
1 44
     0.257516895816948    -4.542451889907170    -0.000000000000000
    -0.044647712746971     0.073275676225949     0.000000000000000
    -0.000000000000002     0.000000000000007     0.003585764750479
1 45
    -9.686146752201946     0.156306315838235    -0.000000000000000
     7.081414439916542    -9.670790313743014    -0.000000000000000
    -0.000000000000005     0.000000000000011    -5.118741318398019
1 46
    -0.346708746824008    -0.526352886414568    -0.000000000000000
    -0.123674745040861    -0.240313836951684    -0.000000000000000
    -0.000000000000002     0.000000000000007    -0.035509073585677
1 47
    -0.010506934568375    -5.010586443370674    -0.000000000000000
    -0.190956213740157     0.044492498988572    -0.000000000000000
    -0.000000000000002     0.000000000000007    -0.023061953595956
1 48
    -1.790860762867895    -1.693340159562240    -0.000000000000000
     0.544555680720554     1.201222505502094     0.000000000000000
    -0.000000000000003     0.000000000000007     0.234314419502106
1 49
     1.549431069312823     0.543005276192607    -0.000000000000000
     1.002032923394194    -1.718925854061385     0.000000000000000
     0.000000000000002     0.000000000000007     0.652051466316518
1 50
    -1.126826809208430     4.838062497382222    -0.000000000000000
     0.640129696318893    -0.821990594992185    -0.000000000000000
     0.000000000000002     0.000000000000014    -0.058625586577667
1 51
     0.719178645645140    -0.213316820781266    -0.000000000000000
    -0.183896275464242     0.149801690453698    -0.000000000000000
     0.000000000000003     0.000000000000007    -0.003079574798382
1 52
    -1.207250764158380     4.832797521754946    -0.000000000000000
    -0.174244865752779     0.533355301052845    -0.000000000000000
     0.000000000000002     0.000000000000007    -0.041119598144541
1 53
    -0.214455233386539     3.911904291883629    -0.000000000000000
     0.336345398776581    -0.146706918168936    -0.000000000000000
     0.000000000000003     0.000000000000007    -0.066900428309541
1 54
    -0.095793255809590     0.302167805626349    -0.000000000000000
     0.228833650168491     0.324475241824908    -0.000000000000000
     0.000000000000003     0.000000000000007     0.000178833575890
1 55
    -0.082751563007779     4.309274957051881    -0.000000000000000
     0.216983554859062     0.055026269000034    -0.000000000000000
     0.000000000000002     0.000000000000007     0.000186411269784
1 56
    -0.266258852434079     0.250143884011100    -0.000000000000000
     0.120257578645681    -0.125233921797546     0.000000000000000
     0.000000000000002     0.000000000000007     0.002115692135109
1 57
    -0.526968491433789    -0.355174137862774    -0.000000000000000
     0.036366829963394     0.121381734528494    -0.000000000000000
     0.000000000000002     0.000000000000004    -0.119385051755788
1 58
     0.257516895816948     4.542451889907170    -0.000000000000000
     0.044647712746971     0.073275676225949     0.000000000000000
     0.000000000000002     0.000000000000007     0.003585764750479
1 59
    -0.768457370753321     0.283199133461460    -0.000000000000000
    -0.144452623106507    -0.016268584023518     0.000000000000000
     0.000000000000002     0.000000000000007     0.003234159753813
1 60
     0.422046744816958     4.365202947056074    -0.000000000000000
    -0.044274636593003    -0.120293126467907    -0.000000000000000
     0.000000000000002     0.000000000000011    -0.007656501910151
1 61
    -9.686146752201946    -0.156306315838235    -0.000000000000000
    -7.081414439916541    -9.670790313743014    -0.000000000000000
     0.000000000000000     0.000000000000011    -5.118741318398018
1 62
    -1.790860762867895     1.693340159562240    -0.000000000000000
    -0.544555680720554     1.201222505502095     0.000000000000000
     0.000000000000002     0.000000000000007     0.234314419502106
1 63
    -0.010506934568375     5.010586443370673    -0.000000000000000
     0.190956213740158     0.044492498988570    -0.000000000000000
     0.000000000000002     0.000000000000011    -0.023061953595956
1 64
    -0.346708746824008     0.526352886414568    -0.000000000000000
     0.123674745040861    -0.240313836951676    -0.000000000000000
     0.000000000000002     0.000000000000007    -0.035509073585677
2 1
    -0.505370802225399    -0.263628739357902     0.000000000000000
     0.264379008675882     0.504413038512078     0.000000000000000
    -0.000000000000000     0.000000000000007    -0.213313598645225
2 2
    21.953231247887000     0.000000000000000     0.000000000000000
     0.000000000000002    42.441949964753810    -0.000000000000000
     0.000000000000005     0.000000000000007    11.637549484898345
2 3
    -0.505370802225399     0.263628739357902     0.000000000000000
    -0.264379008675882     0.504413038512085     0.000000000000000
    -0.000000000000000     0.000000000000007    -0.213313598645225
2 4
    -4.440390788572527     0.000000000000000     0.000000000000000
    -0.000000000000000    -0.761116181299355    -0.000000000000000
    -0.000000000000001     0.000000000000007     0.099049552422770
2 5
    -3.855987992894640    -0.089787727438125     0.000000000000000
    -0.468279205165600     0.214398418678964     0.000000000000000
    -0.000000000000001     0.000000000000011    -0.011098290476650
2 6
     0.248480106410197     0.000000000000000     0.000000000000000
     0.000000000000000     0.014653445843742    -0.000000000000000
     0.000000000000000     0.000000000000007     0.515419583258766
2 7
    -3.855987992894640     0.089787727438125     0.000000000000000
     0.468279205165599     0.214398418678968     0.000000000000000
    -0.000000000000001     0.000000000000011    -0.011098290476650
2 8
     0.021214808460531     0.000000000000000     0.000000000000000
     0.000000000000000     0.365365444175870    -0.000000000000000
     0.000000000000000     0.000000000000007     0.010517839124396
2 9
    -0.195226801477635    -0.209975382498907     0.000000000000000
     0.208677683012341     0.185073577101061    -0.000000000000000
    -0.000000000000000     0.000000000000011     0.010501168197830
2 10
    -3.281533520465019     0.000000000000000     0.000000000000000
    -0.000000000000000     0.054738718794580    -0.000000000000000
    -0.000000000000001     0.000000000000011     0.051110029773938
2 11
    -0.195226801477635     0.209975382498907     0.000000000000000
    -0.208677683012341     0.185073577101061    -0.000000000000000
    -0.000000000000000     0.000000000000007     0.010501168197830
2 12
    -3.661482015573040     0.000000000000000     0.000000000000000
    -0.000000000000000    -0.578714322202808     0.000000000000000
    -0.000000000000000     0.000000000000011    -0.001436730762237
2 13
    -3.855435227082131     0.465676152173101     0.000000000000000
     0.093182456667941     0.238626195292923     0.000000000000000
    -0.000000000000001     0.000000000000014    -0.010936127827326
2 14
     0.250363090546133     0.000000000000000     0.000000000000000
     0.000000000000000     0.021497633475901    -0.000000000000000
     0.000000000000000     0.000000000000011     0.515292278001353
2 15
    -3.855435227082131    -0.465676152173101     0.000000000000000
    -0.093182456667942     0.238626195292920     0.000000000000000
    -0.000000000000000     0.000000000000007    -0.010936127827326
2 16
     0.022364181392556     0.000000000000000     0.000000000000000
     0.000000000000000     0.373979983746208    -0.000000000000000
     0.000000000000000     0.000000000000007     0.010493590503936
2 17
     5.308670796593578     0.421724511210459     0.000000000000000
     0.617964749269481    -0.783714389429466    -0.000000000000000
     0.000000000000001     0.000000000000005     0.058011793372281
2 18
    -9.201612261819921     0.000000000000000     0.000000000000000
    -0.000000000000001   -13.709689879304550     0.000000000000000
    -0.000000000000002     0.000000000000004    -5.886555698789158
2 19
     5.308670796593577    -0.421724511210459     0.000000000000000
    -0.617964749269480    -0.783714389429464    -0.000000000000000
     0.000000000000001     0.000000000000005     0.058011793372281
2 20
    -0.813004888147031     0.000000000000000     0.000000000000000
    -0.000000000000000     0.576577229366114     0.000000000000000
    -0.000000000000000     0.000000000000005    -0.014679508610792
2 21
     0.109568194471089     0.100644296429879     0.000000000000000
    -0.149268473120434    -0.169608866601755     0.000000000000000
     0.000000000000000     0.000000000000004    -0.007414015705554
2 22
     4.332032614174823     0.000000000000000     0.000000000000000
     0.000000000000000    -0.211217416528416     0.000000000000000
     0.000000000000000     0.000000000000004    -0.090132122248715
2 23
     0.109568194471089    -0.100644296429879     0.000000000000000
     0.149268473120434    -0.169608866601754     0.000000000000000
     0.000000000000000     0.000000000000004    -0.007414015705554
2 24
     4.326729277403914     0.000000000000000     0.000000000000000
     0.000000000000000    -0.379716909510066    -0.000000000000000
     0.000000000000001     0.000000000000005     0.000233392971925
2 25
     4.255966850485561     0.347900499686141     0.000000000000000
    -0.047818860055711    -0.369714948997327    -0.000000000000000
     0.000000000000001     0.000000000000005     0.002621882087205
2 26
    -0.161808034523345     0.000000000000000     0.000000000000000
    -0.000000000000000    -0.136870378215033    -0.000000000000000
    -0.000000000000000     0.000000000000005     0.056611435540733
2 27
     4.255966850485561    -0.347900499686141     0.000000000000000
     0.047818860055712    -0.369714948997330    -0.000000000000000
     0.000000000000001     0.000000000000004     0.002621882087205
2 28
     0.370874805934539     0.000000000000000     0.000000000000000
     0.000000000000000     0.602049883674964     0.000000000000000
     0.000000000000000     0.000000000000005    -0.015373625371451
2 29
     0.621067280727571    -0.286323922618361     0.000000000000000
    -0.084209271247706    -0.174230787407344    -0.000000000000000
     0.000000000000000     0.000000000000004     0.510347074966352
2 30
     7.393718785835705     0.000000000000000     0.000000000000000
     0.000000000000001    -7.017362543659527    -0.000000000000000
     0.000000000000001     0.000000000000004     1.632674770939563
2 31
     0.621067280727571     0.286323922618361     0.000000000000000
     0.084209271247706    -0.174230787407346    -0.000000000000000
     0.000000000000000     0.000000000000005     0.510347074966352
2 32
     5.223939433230220     0.000000000000000     0.000000000000000
     0.000000000000000    -0.231625386067816     0.000000000000000
     0.000000000000001     0.000000000000004    -0.041392395124712
2 33
    -1.126826809208430    -4.838062497382221     0.000000000000000
    -0.640129696318893    -0.821990594992185     0.000000000000000
     0.000000000000002    -0.000000000000014    -0.058625586577667
2 34
     1.549431069312823    -0.543005276192607     0.000000000000000
    -1.002032923394193    -1.718925854061384    -0.000000000000000
     0.000000000000002    -0.000000000000007     0.652051466316518
2 35
    -1.207250764158380    -4.832797521754945     0.000000000000000
     0.174244865752779     0.533355301052845     0.000000000000000
     0.000000000000002    -0.000000000000007    -0.041119598144541
2 36
     0.719178645645140     0.213316820781266     0.000000000000000
     0.183896275464242     0.149801690453698     0.000000000000000
     0.000000000000003    -0.000000000000007    -0.003079574798382
2 37
    -0.095793255809590    -0.302167805626349     0.000000000000000
    -0.228833650168491     0.324475241824908     0.000000000000000
     0.000000000000003    -0.000000000000007     0.000178833575890
2 38
    -0.214455233386539    -3.911904291883629     0.000000000000000
    -0.336345398776581    -0.146706918168936     0.000000000000000
     0.000000000000003    -0.000000000000007    -0.066900428309541
2 39
    -0.266258852434079    -0.250143884011100     0.000000000000000
    -0.120257578645681    -0.125233921797546    -0.000000000000000
     0.000000000000002    -0.000000000000007     0.002115692135109
2 40
    -0.082751563007779    -4.309274957051880     0.000000000000000
    -0.216983554859062     0.055026269000034     0.000000000000000
     0.000000000000002    -0.000000000000007     0.000186411269784
2 41
     0.257516895816948    -4.542451889907169     0.000000000000000
    -0.044647712746971     0.073275676225949    -0.000000000000000
     0.000000000000002    -0.000000000000007     0.003585764750479
2 42
    -0.526968491433789     0.355174137862773     0.000000000000000
    -0.036366829963394     0.121381734528494     0.000000000000000
     0.000000000000002    -0.000000000000004    -0.119385051755788
2 43
     0.422046744816958    -4.365202947056074     0.000000000000000
     0.044274636593003    -0.120293126467907     0.000000000000000
     0.000000000000002    -0.000000000000011    -0.007656501910151
2 44
    -0.768457370753321    -0.283199133461460     0.000000000000000
     0.144452623106507    -0.016268584023518    -0.000000000000000
     0.000000000000002    -0.000000000000007     0.003234159753813
2 45
    -1.790860762867895    -1.693340159562240     0.000000000000000
     0.544555680720554     1.201222505502095    -0.000000000000000
     0.000000000000002    -0.000000000000007     0.234314419502106
2 46
    -9.686146752201946     0.156306315838234     0.000000000000000
     7.081414439916540    -9.670790313743012     0.000000000000000
     0.000000000000000    -0.000000000000011    -5.118741318398018
2 47
    -0.346708746824008    -0.526352886414568     0.000000000000000
    -0.123674745040861    -0.240313836951676     0.000000000000000
     0.000000000000002    -0.000000000000007    -0.035509073585677
2 48
    -0.010506934568375    -5.010586443370673     0.000000000000000
    -0.190956213740158     0.044492498988570     0.000000000000000
     0.000000000000002    -0.000000000000011    -0.023061953595956
2 49
    -1.207250764158379     4.832797521754945     0.000000000000000
    -0.174244865752780     0.533355301052847     0.000000000000000
    -0.000000000000003    -0.000000000000005    -0.041119598144541
2 50
     1.549431069312823     0.543005276192607     0.000000000000000
     1.002032923394194    -1.718925854061383    -0.000000000000000
    -0.000000000000001    -0.000000000000007     0.652051466316518
2 51
    -1.126826809208430     4.838062497382221     0.000000000000000
     0.640129696318893    -0.821990594992186     0.000000000000000
    -0.000000000000002    -0.000000000000007    -0.058625586577667
2 52
     0.719178645645140    -0.213316820781266     0.000000000000000
    -0.183896275464241     0.149801690453696     0.000000000000000
    -0.000000000000002    -0.000000000000007    -0.003079574798382
2 53
    -0.266258852434079     0.250143884011100     0.000000000000000
     0.120257578645682    -0.125233921797541    -0.000000000000000
    -0.000000000000002    -0.000000000000007     0.002115692135109
2 54
    -0.214455233386539     3.911904291883628     0.000000000000000
     0.336345398776581    -0.146706918168935     0.000000000000000
    -0.000000000000002    -0.000000000000007    -0.066900428309541
2 55
    -0.095793255809590     0.302167805626349     0.000000000000000
     0.228833650168491     0.324475241824905    -0.000000000000000
    -0.000000000000002    -0.000000000000007     0.000178833575890
2 56
    -0.082751563007779     4.309274957051879     0.000000000000000
     0.216983554859063     0.055026269000036    -0.000000000000000
    -0.000000000000003    -0.000000000000005     0.000186411269784
2 57
     0.422046744816958     4.365202947056074     0.000000000000000
    -0.044274636593002    -0.120293126467903     0.000000000000000
    -0.000000000000002    -0.000000000000004    -0.007656501910151
2 58
    -0.526968491433789    -0.355174137862773     0.000000000000000
     0.036366829963393     0.121381734528489     0.000000000000000
    -0.000000000000002    -0.000000000000007    -0.119385051755788
2 59
     0.257516895816948     4.542451889907169     0.000000000000000
     0.044647712746971     0.073275676225949    -0.000000000000000
    -0.000000000000002    -0.000000000000007     0.003585764750479
2 60
    -0.768457370753321     0.283199133461460     0.000000000000000
    -0.144452623106507    -0.016268584023519    -0.000000000000000
    -0.000000000000002    -0.000000000000007     0.003234159753813
2 61
    -0.346708746824008     0.526352886414568     0.000000000000000
     0.123674745040861    -0.240313836951683     0.000000000000000
    -0.000000000000002    -0.000000000000007    -0.035509073585677
2 62
    -9.686146752201946    -0.156306315838234     0.000000000000000
    -7.081414439916541    -9.670790313743012     0.000000000000000
    -0.000000000000005    -0.000000000000011    -5.118741318398019
2 63
    -1.790860762867895     1.693340159562240     0.000000000000000
    -0.544555680720554     1.201222505502094    -0.000000000000000
    -0.000000000000003    -0.000000000000007     0.234314419502106
2 64
    -0.010506934568375     5.010586443370673     0.000000000000000
     0.190956213740157     0.044492498988572     0.000000000000000
    -0.000000000000002    -0.000000000000007    -0.023061953595956
3 1
    -4.440390788572527     0.000000000000000     0.000000000000000
     0.000000000000000    -0.761116181299355     0.000000000000000
    -0.000000000000001    -0.000000000000007     0.099049552422770
3 2
    -0.505370802225399    -0.263628739357902     0.000000000000000
     0.264379008675882     0.504413038512085    -0.000000000000000
    -0.000000000000000    -0.000000000000007    -0.213313598645225
3 3
    21.953231247887000     0.000000000000000     0.000000000000000
    -0.000000000000002    42.441949964753810     0.000000000000000
     0.000000000000005    -0.000000000000007    11.637549484898345
3 4
    -0.505370802225399     0.263628739357902     0.000000000000000
    -0.264379008675882     0.504413038512078    -0.000000000000000
    -0.000000000000000    -0.000000000000007    -0.213313598645225
3 5
     0.021214808460531     0.000000000000000     0.000000000000000
    -0.000000000000000     0.365365444175870     0.000000000000000
     0.000000000000000    -0.000000000000007     0.010517839124396
3 6
    -3.855987992894640    -0.089787727438125     0.000000000000000
    -0.468279205165599     0.214398418678968    -0.000000000000000
    -0.000000000000001    -0.000000000000011    -0.011098290476650
3 7
     0.248480106410197     0.000000000000000     0.000000000000000
    -0.000000000000000     0.014653445843742     0.000000000000000
     0.000000000000000    -0.000000000000007     0.515419583258766
3 8
    -3.855987992894640     0.089787727438125     0.000000000000000
     0.468279205165600     0.214398418678964    -0.000000000000000
    -0.000000000000001    -0.000000000000011    -0.011098290476650
3 9
    -3.661482015573040     0.000000000000000     0.000000000000000
     0.000000000000000    -0.578714322202808    -0.000000000000000
    -0.000000000000000    -0.000000000000011    -0.001436730762237
3 10
    -0.195226801477635    -0.209975382498907     0.000000000000000
     0.208677683012341     0.185073577101061     0.000000000000000
    -0.000000000000000    -0.000000000000007     0.010501168197830
3 11
    -3.281533520465019     0.000000000000000     0.000000000000000
     0.000000000000000     0.054738718794580     0.000000000000000
    -0.000000000000001    -0.000000000000011     0.051110029773938
3 12
    -0.195226801477635     0.209975382498907     0.000000000000000
    -0.208677683012341     0.185073577101061     0.000000000000000
    -0.000000000000000    -0.000000000000011     0.010501168197830
3 13
     0.022364181392556     0.000000000000000     0.000000000000000
    -0.000000000000000     0.373979983746208     0.000000000000000
     0.000000000000000    -0.000000000000007     0.010493590503936
3 14
    -3.855435227082131     0.465676152173101     0.000000000000000
     0.093182456667942     0.238626195292920    -0.000000000000000
    -0.000000000000000    -0.000000000000007    -0.010936127827326
3 15
     0.250363090546133     0.000000000000000     0.000000000000000
    -0.000000000000000     0.021497633475901     0.000000000000000
     0.000000000000000    -0.000000000000011     0.515292278001353
3 16
    -3.855435227082131    -0.465676152173101     0.000000000000000
    -0.093182456667941     0.238626195292923    -0.000000000000000
    -0.000000000000001    -0.000000000000014    -0.010936127827326
3 17
    -0.813004888147031     0.000000000000000     0.000000000000000
     0.000000000000000     0.576577229366114    -0.000000000000000
    -0.000000000000000    -0.000000000000005    -0.014679508610792
3 18
     5.308670796593577     0.421724511210459     0.000000000000000
     0.617964749269480    -0.783714389429464     0.000000000000000