 128  128
1 1
    28.474611448958015    -8.013826295269038    -0.000000000000000
    -8.020555000000002    42.753276000000000    -0.000000000000000
    -0.000000000000057     0.000000000000000     8.767985754089118
1 2
     0.013021732790534     0.048791802170077    -0.000000000000000
    -0.070070000000001    -0.032330500000000    -0.000000000000000
    -0.000000000000057    -0.000000000000004     0.105426382306915
1 3
    -0.020803116644032     0.027108573055474    -0.000000000000000
     0.027824500000001    -0.068988000000000    -0.000000000000000
    -0.000000000000028    -0.000000000000005    -0.023637389394321
1 4
     0.012201101002397    -0.069143772960065    -0.000000000000000
     0.047500499999998    -0.029062500000000    -0.000000000000000
    -0.000000000000028    -0.000000000000005     0.105528845148571
1 5
     0.021672139495841    -0.043935053227377    -0.000000000000000
    -0.332820000000005    -0.040375500000000    -0.000000000000000
    -0.000000000000028    -0.000000000000005     0.076145654864467
1 6
     0.018630055440923    -0.058154968917421    -0.000000000000000
     0.054385500000002    -0.051976000000000    -0.000000000000000
    -0.000000000000057    -0.000000000000004     0.016468931356930
1 7
    -0.005559427513141     0.013351396911812    -0.000000000000000
     0.044935000000002    -0.118319500000001    -0.000000000000000
    -0.000000000000028    -0.000000000000004    -0.002384231507763
1 8
    -0.067092697563304     0.066638023194194    -0.000000000000000
     0.182144000000001    -0.283467499999999    -0.000000000000000
    -0.000000000000057    -0.000000000000004    -0.027479745956419
1 9
     0.010232693672741     0.001263208391324    -0.000000000000000
    -0.000261999999999     0.027134000000000    -0.000000000000000
    -0.000000000000057    -0.000000000000004    -0.036189087497174
1 10
     0.006093241434286    -0.030213162234310    -0.000000000000000
     0.010404500000000    -0.025836000000000    -0.000000000000000
    -0.000000000000028    -0.000000000000004    -0.004551714696639
1 11
     0.029719674199548    -0.030202576689132    -0.000000000000000
    -0.029873500000001     0.015661000000000    -0.000000000000000
    -0.000000000000057    -0.000000000000004     0.000638422321087
1 12
     0.005119371277850     0.010812882363245    -0.000000000000000
    -0.031229999999994    -0.022606999999999    -0.000000000000000
    -0.000000000000057    -0.000000000000004    -0.004827576193405
1 13
     0.021244685100058    -0.331952615332225    -0.000000000000000
    -0.046457500000002    -0.039818000000000    -0.000000000000000
    -0.000000000000057    -0.000000000000004     0.076102305200689
1 14
    -0.066630462090501     0.182823454854792    -0.000000000000000
     0.065358999999994    -0.286078000000000    -0.000000000000000
    -0.000000000000057    -0.000000000000004    -0.027396987507389
1 15
    -0.005579086382745     0.043682008290248    -0.000000000000000
     0.013027500000000    -0.117539500000000    -0.000000000000000
    -0.000000000000028    -0.000000000000004    -0.002498516984995
1 16
     0.017564443892930     0.054155649134195    -0.000000000000000
    -0.060179500000004    -0.047844500000000    -0.000000000000000
    -0.000000000000057    -0.000000000000004     0.016256123916568
1 17
    -0.154872070773663    -0.109655158432505    -0.000000000000000
     0.109595499999998     0.463669500000000    -0.000000000000000
     0.000000000000028    -0.000000000000004    -0.197059689775531
1 18
   -13.088362244475974     0.470775487394249    -0.000000000000000
    -0.470880000000001    -2.139180500000000    -0.000000000000000
     0.000000000000028    -0.000000000000004    -4.701779410001205
1 19
    -0.005130964970185    -0.024621978085641    -0.000000000000000
     0.026971000000003     0.155285000000000    -0.000000000000000
     0.000000000000028    -0.000000000000005    -0.086009673813114
1 20
    -0.001020748999373    -0.006045354444193    -0.000000000000000
     0.007440500000001     0.068413499999999    -0.000000000000000
     0.000000000000028    -0.000000000000004     0.011680763948778
1 21
     0.041407628297563    -0.110037750279678    -0.000000000000000
    -0.144552499999996     0.057646500000001    -0.000000000000000
     0.000000000000057    -0.000000000000004    -0.028642305121361
1 22
    -0.121496350898823    -0.008478013540973    -0.000000000000000
     0.107549499999998     0.232195000000000    -0.000000000000000
     0.000000000000057    -0.000000000000004    -0.195696145805802
1 23
    -0.018224780282651    -0.055484891164491    -0.000000000000000
    -0.020680999999996     0.021594000000001    -0.000000000000000
     0.000000000000057    -0.000000000000004     0.013300465022647
1 24
     0.014878235785446     0.008565218270303    -0.000000000000000
    -0.019940999999996     0.015556500000000    -0.000000000000000
     0.000000000000057    -0.000000000000004     0.001201967950195
1 25
    -0.001016716410732    -0.005017548414700    -0.000000000000000
     0.004743500000004    -0.024161000000000    -0.000000000000000
     0.000000000000057    -0.000000000000004     0.006518213080728
1 26
    -0.042560948648465    -0.019750106935542    -0.000000000000000
     0.019450999999997    -0.015099500000000    -0.000000000000000
     0.000000000000057    -0.000000000000004    -0.028583191943483
1 27
    -0.012108855537264    -0.018811521929698    -0.000000000000000
     0.020611000000002     0.129675000000000    -0.000000000000000
     0.000000000000057    -0.000000000000004     0.004610827874517
1 28
    -0.066113282597485    -0.081934135977407    -0.000000000000000
     0.083586500000003     0.197154000000000    -0.000000000000000
     0.000000000000028    -0.000000000000004    -0.000492609815654
1 29
     0.041672266927037     0.143438673833514    -0.000000000000000
     0.110483000000002     0.058338000000000    -0.000000000000000
     0.000000000000028    -0.000000000000004    -0.028559546672332
1 30
    -0.121172231586925    -0.108484195506310    -0.000000000000000
     0.009349000000000     0.233098000000000    -0.000000000000000
     0.000000000000057    -0.000000000000004    -0.195558215057418
1 31
    -0.017870416555951     0.022265434099431    -0.000000000000000
     0.058470499999991     0.022385500000000    -0.000000000000000
     0.000000000000057    -0.000000000000004     0.013119184610486
1 32
     0.014855552474344     0.020699277486564    -0.000000000000000
    -0.006334499999994     0.016163000000000    -0.000000000000000
     0.000000000000057    -0.000000000000004     0.001083741594438
1 33
     1.390873090620595    -0.561230483166925    -0.000000000000000
     0.204123500000000    -2.834017000000001    -0.000000000000000
    -0.000000000000014     0.000000000000021     0.975032460319432
1 34
     0.067349271015487     0.087852967953037    -0.000000000000000
     0.006210999999997     0.027795000000001    -0.000000000000000
    -0.000000000000014     0.000000000000014    -0.125907128002528
1 35
     0.010328971726507    -0.030222739632329    -0.000000000000000
     0.022100499999999     0.105912999999999    -0.000000000000000
    -0.000000000000014     0.000000000000021     0.008283726660031
1 36
    -0.028287601158947    -0.094997706875072    -0.000000000000000
     0.110329999999999     0.405613000000002    -0.000000000000000
    -0.000000000000014     0.000000000000021    -0.026809796607130
1 37
     0.088861619186492     0.091056355553542    -0.000000000000000
    -0.023874999999999    -0.140457000000000    -0.000000000000000
    -0.000000000000014     0.000000000000014     0.032157568765865
1 38
     0.039883309791835     0.021551665910239    -0.000000000000000
    -0.009446000000002     0.048544500000000    -0.000000000000000
    -0.000000000000014     0.000000000000014    -0.011609828135323
1 39
     0.056033827293042     0.083636392456858    -0.000000000000000
    -0.004066500000000    -0.009223500000003    -0.000000000000000
    -0.000000000000014     0.000000000000014    -0.001284726399225
1 40
     0.073984895621788    -0.029677836092418    -0.000000000000000
    -0.105528000000003     0.049301000000002    -0.000000000000000
    -0.000000000000014     0.000000000000014    -0.003408859924323
1 41
     0.053759447300365    -0.000877088029091    -0.000000000000000
    -0.047681000000003    -0.037590999999997    -0.000000000000000
    -0.000000000000014     0.000000000000014     0.013974355250461
1 42
     0.038605483266695    -0.015708949045180    -0.000000000000000
     0.028364500000000     0.159022500000001    -0.000000000000000
    -0.000000000000014     0.000000000000014     0.004055164002460
1 43
     0.020533437278765    -0.040939848015388    -0.000000000000000
     0.016181000000001     0.137975500000001    -0.000000000000000
    -0.000000000000014     0.000000000000014    -0.002336940965461
1 44
     0.041720153917128    -0.010558829278956    -0.000000000000000
    -0.004780000000002    -0.038265500000001    -0.000000000000000
    -0.000000000000014     0.000000000000014     0.011952684567018
1 45
    -2.847890716400621    -0.274271979653527    -0.000000000000000
     1.615386500000000   -18.293172499999997    -0.000000000000000
    -0.000000000000014     0.000000000000014    -4.352605750030376
1 46
    -0.171292267640139    -0.200221050392765    -0.000000000000000
     0.046072000000001     0.130482499999999    -0.000000000000000
    -0.000000000000014     0.000000000000021     0.048634381879846
1 47
    -0.009084918131219    -0.001987562125693    -0.000000000000000
    -0.012767499999999     0.036114500000000    -0.000000000000000
    -0.000000000000021     0.000000000000014     0.010577317961714
1 48
    -0.078307830643332     0.087660915919077    -0.000000000000000
     0.062429000000000    -0.010543500000001    -0.000000000000000
    -0.000000000000014     0.000000000000021    -0.004382256920054
1 49
    -7.568163249553699     6.415324792998492    -0.000000000000000
     4.494176499999988   -15.381897500000001    -0.000000000000000
     0.000000000000057    -0.000000000000002    -4.712510422225402
1 50
    -0.070005234708184    -0.095470527893055    -0.000000000000000
    -0.005094499999991     0.028228500000000    -0.000000000000000
     0.000000000000057     0.000000000000000     0.166565171747312
1 51
     0.031770245522743    -0.016583012632793    -0.000000000000000
    -0.077932499999996     0.011983000000000    -0.000000000000000
     0.000000000000057     0.000000000000000    -0.004823635314880
1 52
     0.030305407699430     0.015172110682547    -0.000000000000000
    -0.101804999999999    -0.059667000000000    -0.000000000000000
     0.000000000000057     0.000000000000000     0.029737869351375
1 53
    -0.097395584894848    -0.071563830217346    -0.000000000000000
     0.122435499999995    -0.062333500000000    -0.000000000000000
     0.000000000000057     0.000000000000000     0.031262989340638
1 54
    -0.067091689416138     0.012373998240313    -0.000000000000000
    -0.027490500000006     0.019783500000000    -0.000000000000000
     0.000000000000057     0.000000000000000     0.007992101649164
1 55
    -0.070975576349547    -0.049781802681075    -0.000000000000000
    -0.037613499999999     0.080972000000000    -0.000000000000000
     0.000000000000085     0.000000000000000    -0.001477829446961
1 56
    -0.056125568684593    -0.064129248986844    -0.000000000000000
    -0.043526000000000     0.164864000000000    -0.000000000000000
     0.000000000000057     0.000000000000000     0.024681722203507
1 57
    -0.012320062367266    -0.035782671219043    -0.000000000000000
     0.055579999999999    -0.016757500000000    -0.000000000000000
     0.000000000000085     0.000000000000000    -0.005158609989524
1 58
    -0.056993079315674     0.011703076305415    -0.000000000000000
    -0.061881000000007    -0.032891500000000    -0.000000000000000
     0.000000000000057     0.000000000000000    -0.000086699327555
1 59
    -0.008646878190248    -0.015531011071463    -0.000000000000000
    -0.033830000000002    -0.002096500000000    -0.000000000000000
     0.000000000000057     0.000000000000000    -0.003006890314749
1 60
    -0.025525782014483    -0.014441203991637    -0.000000000000000
    -0.015025500000000     0.026899000000000    -0.000000000000000
     0.000000000000057     0.000000000000000    -0.000681771984865
1 61
     0.201811906611049    -0.852382878865404    -0.000000000000000
    -0.454923000000001    -0.993791000000000    -0.000000000000000
     0.000000000000057     0.000000000000000     1.097593782454042
1 62
     0.381237401463487    -0.027292559912151    -0.000000000000000
    -0.259472500000008     0.176832500000000    -0.000000000000000
     0.000000000000057     0.000000000000000    -0.021134931530801
1 63
     0.023695490845711    -0.004279080620092    -0.000000000000000
    -0.031158499999997     0.040534000000000    -0.000000000000000
     0.000000000000085     0.000000000000000     0.003152702820183
1 64
     0.043796432992892    -0.007165910012395    -0.000000000000000
    -0.057341500000000     0.000051000000000    -0.000000000000000
     0.000000000000057     0.000000000000000    -0.040327009948664
1 65
    -0.042404181765107     0.098830682376922    -0.000000000000000
    -0.025124500000000    -0.072135000000001    -0.000000000000000
     0.000000000000014     0.000000000000014     0.216362112792100
1 66
    -0.569509387643823    -0.031866523576506    -0.000000000000000
    -0.051882500000000    -0.497551500000002    -0.000000000000000
     0.000000000000014     0.000000000000014    -0.071779161458514
1 67
    -0.025285842990417     0.039305641469230    -0.000000000000000
    -0.032624000000000     0.017956999999999    -0.000000000000000
     0.000000000000014     0.000000000000014     0.021331975457062
1 68
    -0.020118080648896     0.016500344565682    -0.000000000000000
    -0.001432000000001    -0.045722499999998    -0.000000000000000
     0.000000000000014     0.000000000000014    -0.008338898959384
1 69
    -0.059300728164621     0.055390125331462    -0.000000000000000
     0.073835000000001    -0.081624000000000    -0.000000000000000
     0.000000000000014     0.000000000000014    -0.001505415596637
1 70
    -0.047595635564884    -0.000025203678995    -0.000000000000000
    -0.004076000000001     0.050682499999999    -0.000000000000000
     0.000000000000014     0.000000000000021     0.029083683516187
1 71
    -0.030787302041860     0.000003024441478    -0.000000000000000
     0.011409000000000    -0.093899500000001    -0.000000000000000
     0.000000000000014     0.000000000000014     0.004165508601167
1 72
    -0.032541982173621     0.034599610526929    -0.000000000000000
    -0.000254499999999    -0.121371999999999    -0.000000000000000
     0.000000000000014     0.000000000000014     0.001521179110738
1 73
    -0.005409213586312    -0.077826440374494    -0.000000000000000
    -0.044552500000000     0.016462500000001    -0.000000000000000
     0.000000000000021     0.000000000000014    -0.009820669284870
1 74
    -0.045901444262714     0.086312015019166    -0.000000000000000
    -0.003160999999999    -0.125123500000001    -0.000000000000000
     0.000000000000014     0.000000000000014     0.066277695037294
1 75
    -0.031156283902375    -0.033807206859265    -0.000000000000000
     0.040160999999999    -0.033275999999999    -0.000000000000000
     0.000000000000014     0.000000000000014    -0.004776344772577
1 76
    -0.033033453914063     0.037917926903658    -0.000000000000000
     0.025983499999999    -0.081715000000001    -0.000000000000000
     0.000000000000014     0.000000000000014     0.002116251768048
1 77
     0.100288463170102    -0.019110437562601    -0.000000000000000
     0.038293000000001    -0.323317500000000    -0.000000000000000
     0.000000000000014     0.000000000000014     0.043597939124604
1 78
    -2.270276833738562     0.987941370423751    -0.000000000000000
     2.322989499999997    -2.234614000000002    -0.000000000000000
     0.000000000000014     0.000000000000014     0.898922273361693
1 79
     0.081021762797718     0.068965330912768    -0.000000000000000
     0.007393500000001    -0.225033000000000    -0.000000000000000
     0.000000000000014     0.000000000000014    -0.002995067679174
1 80
     0.021453371562149    -0.029600712834688    -0.000000000000000
     0.021055000000000    -0.057044000000001    -0.000000000000000
     0.000000000000014     0.000000000000021    -0.000252216225615
1 81
     0.089466507482413    -0.130741564428462    -0.000000000000000
    -0.036182499999995    -0.451487500000000    -0.000000000000000
    -0.000000000000085     0.000000000000000    -0.182821295663880
1 82
    -0.597515715745168    -0.142419941128460    -0.000000000000000
    -1.343580000000003     0.040210500000000    -0.000000000000000
    -0.000000000000057     0.000000000000000     1.417317257205837
1 83
    -0.019783879865393    -0.015057181906321    -0.000000000000000
    -0.001784000000008    -0.070648500000000    -0.000000000000000
    -0.000000000000057     0.000000000000000     0.003767479870119
1 84
     0.010660652142107     0.014205297556227    -0.000000000000000
    -0.022734000000007    -0.054716500000000    -0.000000000000000
    -0.000000000000057     0.000000000000000     0.017745775999104
1 85
     0.138969557473779     0.057846475886500    -0.000000000000000
    -0.138951999999996    -0.048373500000000    -0.000000000000000
    -0.000000000000057     0.000000000000000     0.022880740717477
1 86
     0.004073922673058    -0.029360269737056    -0.000000000000000
    -0.028351999999998    -0.000448500000000    -0.000000000000000
    -0.000000000000057     0.000000000000000     0.068307247477787
1 87
     0.087469872032280     0.017703568200995    -0.000000000000000
    -0.074733500000001    -0.021780500000000    -0.000000000000000
    -0.000000000000057     0.000000000000000    -0.013532976855635
1 88
     0.030634567747136    -0.029030605615777    -0.000000000000000
    -0.024056999999999     0.007106500000000    -0.000000000000000
    -0.000000000000085     0.000000000000000    -0.000654185835188
1 89
    -0.019390702473046     0.031049924377007    -0.000000000000000
     0.051763500000000     0.030649000000000    -0.000000000000000
    -0.000000000000057     0.000000000000000    -0.003073885249678
1 90
     0.111548458798751    -0.015301657592591    -0.000000000000000
    -0.096826000000007     0.006541000000000    -0.000000000000000
    -0.000000000000057     0.000000000000000     0.027515213863146
1 91
     0.028516450564233     0.012841778522495    -0.000000000000000
    -0.058917000000001    -0.011422500000000    -0.000000000000000
    -0.000000000000057     0.000000000000000    -0.003286692690041
1 92
     0.082029909957591     0.033694798450941    -0.000000000000000
    -0.132291000000009    -0.066795000000000    -0.000000000000000
    -0.000000000000057     0.000000000000000     0.001627582830919
1 93
    -0.181139345024214    -0.063763795641389    -0.000000000000000
    -0.152396499999995     0.114846500000000    -0.000000000000000
    -0.000000000000057     0.000000000000000     0.014084699849167
1 94
    -0.749153146356370     0.831348896521761    -0.000000000000000
     0.217803500000002    -0.763656500000000    -0.000000000000000
    -0.000000000000057    -0.000000000000000     0.436810916614862
1 95
    -0.033730083601533     0.032096381128958    -0.000000000000000
    -0.053590999999997    -0.014108500000000    -0.000000000000000
    -0.000000000000057     0.000000000000000     0.011798990304534
1 96
    -0.037974383144608     0.006115420671805    -0.000000000000000
    -0.023756499999998     0.006013500000000    -0.000000000000000
    -0.000000000000057     0.000000000000000    -0.008973380401946
1 97
    -2.341374899968045     1.890409000191774    -0.000000000000000
     2.654581499999995     0.423419500000000    -0.000000000000000
    -0.000000000000043    -0.000000000000014     0.456121221388483
1 98
     0.245247926994292    -0.008131210917975    -0.000000000000000
    -0.075801999999999    -0.001158999999999    -0.000000000000000
    -0.000000000000028    -0.000000000000014    -0.268531462709076
1 99
    -0.031926004258942     0.001161889601756    -0.000000000000000
     0.072139499999999    -0.003298500000000    -0.000000000000000
    -0.000000000000028    -0.000000000000014     0.008019687798840
1 100
    -0.016284096999890     0.011463641354943    -0.000000000000000
     0.108362000000000    -0.020391500000001    -0.000000000000000
    -0.000000000000043    -0.000000000000007    -0.035061996238959
1 101
     0.141249482275843    -0.005547833820795    -0.000000000000000
    -0.229387499999998     0.005715500000001    -0.000000000000000
    -0.000000000000028    -0.000000000000007    -0.022045274470129
1 102
     0.064863684192815    -0.004305796519830    -0.000000000000000
     0.024180999999995    -0.003860000000000    -0.000000000000000
    -0.000000000000043    -0.000000000000007    -0.010589140597289
1 103
     0.106620635481278    -0.003199859085445    -0.000000000000000
     0.005447000000004    -0.006127500000000    -0.000000000000000
    -0.000000000000028    -0.000000000000014     0.001237435856922
1 104
     0.048400641072046     0.001199191046672    -0.000000000000000
     0.061009499999997     0.008582000000001    -0.000000000000000
    -0.000000000000028    -0.000000000000007    -0.002731028817983
1 105
     0.009227066880765     0.004749381270173    -0.000000000000000
    -0.014692500000002     0.001587000000001    -0.000000000000000
    -0.000000000000028    -0.000000000000007    -0.000216748318888
1 106
     0.108904088798397    -0.004791723450889    -0.000000000000000
     0.005419499999999    -0.003859000000000    -0.000000000000000
    -0.000000000000028    -0.000000000000014     0.001115268622640
1 107
     0.020216879070563     0.008385768075843    -0.000000000000000
     0.004906500000001    -0.020933000000001    -0.000000000000000
    -0.000000000000028    -0.000000000000014    -0.000090640206080
1 108
     0.063322731258943    -0.003118703239076    -0.000000000000000
    -0.063926000000006    -0.005917499999999    -0.000000000000000
    -0.000000000000028    -0.000000000000014    -0.000200984804787
1 109
     0.052062735630297    -0.065657600081215    -0.000000000000000
     0.163035499999999    -0.017816000000002    -0.000000000000000
    -0.000000000000043    -0.000000000000014    -0.100082551026705
1 110
    -0.556687772064528    -0.000905820223148    -0.000000000000000
     0.277555499999998     0.014404499999999    -0.000000000000000
    -0.000000000000028    -0.000000000000014    -0.042273803940127
1 111
    -0.036484341642318    -0.001185581060014    -0.000000000000000
     0.006601000000000    -0.001586500000000    -0.000000000000000
    -0.000000000000028    -0.000000000000014    -0.001698518644374
1 112
    -0.046608155421787    -0.003019904817407    -0.000000000000000
     0.026655500000000    -0.016781500000000    -0.000000000000000
    -0.000000000000028    -0.000000000000007     0.001249258492497
1 113
    -0.053925791581747     0.136983003495251    -0.000000000000000
    -0.981587000000001     0.114113499999998    -0.000000000000000
     0.000000000000043    -0.000000000000014     0.221217275135182
1 114
    -0.321919030723564    -0.139977704633662    -0.000000000000000
     0.028222999999997    -0.245258500000000    -0.000000000000000
     0.000000000000043    -0.000000000000007     0.069974239093959
1 115
     0.018775228631938     0.001395779742849    -0.000000000000000
    -0.026893500000000     0.000158500000001    -0.000000000000000
     0.000000000000028    -0.000000000000014     0.001335957820052
1 116
    -0.003916147642531    -0.005352757345360    -0.000000000000000
    -0.031766999999999     0.018457499999998    -0.000000000000000
     0.000000000000043    -0.000000000000014    -0.016181247224589
1 117
    -0.172210689702784    -0.015327869418750    -0.000000000000000
     0.221529999999998     0.022426000000001    -0.000000000000000
     0.000000000000028    -0.000000000000014    -0.031956583961079
1 118
    -0.048489358022120    -0.002137271978937    -0.000000000000000
     0.008342000000003    -0.027213999999999    -0.000000000000000
     0.000000000000028    -0.000000000000014     0.008914267224067
1 119
    -0.113702365205828     0.000959252022621    -0.000000000000000
     0.050128500000003     0.014368500000000    -0.000000000000000
     0.000000000000028    -0.000000000000014    -0.002068961225745
1 120
    -0.051494140632123    -0.002233550032706    -0.000000000000000
    -0.007580000000004     0.011031500000000    -0.000000000000000
     0.000000000000028    -0.000000000000014     0.001631523709445
1 121
    -0.000193564254698    -0.003132817299313    -0.000000000000000
    -0.014994499999997    -0.005147000000001    -0.000000000000000
     0.000000000000028    -0.000000000000014     0.005844322852914
1 122
    -0.123494498569695    -0.006336708973398    -0.000000000000000
     0.046889999999998     0.011488499999999    -0.000000000000000
     0.000000000000028    -0.000000000000007    -0.007621659067792
1 123
    -0.029806878928881    -0.003356121895225    -0.000000000000000
     0.042899999999999     0.001576500000001    -0.000000000000000
     0.000000000000028    -0.000000000000014     0.002072902104270
1 124
    -0.092746514267070    -0.002014278025431    -0.000000000000000
     0.128777000000003    -0.000542500000002    -0.000000000000000
     0.000000000000043    -0.000000000000014    -0.001387189240880
1 125
     0.167252117896936     0.033711936952660    -0.000000000000000
     0.008340500000003    -0.019759500000001    -0.000000000000000
     0.000000000000028    -0.000000000000007    -0.045067886814514
1 126
     0.624299665415165     0.050258152214115    -0.000000000000000
    -0.128351000000002     0.069172499999999    -0.000000000000000
     0.000000000000028    -0.000000000000014     0.042025528593038
1 127
     0.034252807903936    -0.006638144974200    -0.000000000000000
     0.049068499999997     0.018043000000002    -0.000000000000000
     0.000000000000028    -0.000000000000014     0.000327092917594
1 128
     0.048695524116308     0.001081741902546    -0.000000000000000
     0.003312500000003     0.007736000000000    -0.000000000000000
     0.000000000000043    -0.000000000000014     0.000445319273351
2 1
     0.012201101002397    -0.069143772960065     0.000000000000000
     0.047500499999998    -0.029062500000000     0.000000000000000
    -0.000000000000028    -0.000000000000005     0.105528845148571
2 2
    28.474611448958008    -8.013826295269036     0.000000000000000
    -8.020555000000000    42.753276000000000     0.000000000000000
    -0.000000000000057     0.000000000000000     8.767985754089118
2 3
     0.013021732790534     0.048791802170077     0.000000000000000
    -0.070070000000001    -0.032330500000000     0.000000000000000
    -0.000000000000057    -0.000000000000004     0.105426382306915
2 4
    -0.020803116644032     0.027108573055474     0.000000000000000
     0.027824500000001    -0.068988000000000     0.000000000000000
    -0.000000000000028    -0.000000000000005    -0.023637389394321
2 5
    -0.067092697563304     0.066638023194194     0.000000000000000
     0.182144000000001    -0.283467499999999     0.000000000000000
    -0.000000000000057    -0.000000000000004    -0.027479745956419
2 6
     0.021672139495841    -0.043935053227377     0.000000000000000
    -0.332820000000005    -0.040375500000000     0.000000000000000
    -0.000000000000028    -0.000000000000005     0.076145654864467
2 7
     0.018630055440923    -0.058154968917421     0.000000000000000
     0.054385500000002    -0.051976000000000     0.000000000000000
    -0.000000000000057    -0.000000000000004     0.016468931356930
2 8
    -0.005559427513141     0.013351396911812     0.000000000000000
     0.044935000000002    -0.118319500000001     0.000000000000000
    -0.000000000000028    -0.000000000000004    -0.002384231507763
2 9
     0.005119371277850     0.010812882363245     0.000000000000000
    -0.031229999999994    -0.022606999999999     0.000000000000000
    -0.000000000000057    -0.000000000000004    -0.004827576193405
2 10
     0.010232693672741     0.001263208391324     0.000000000000000
    -0.000261999999999     0.027134000000000     0.000000000000000
    -0.000000000000057    -0.000000000000004    -0.036189087497174
2 11
     0.006093241434286    -0.030213162234310     0.000000000000000
     0.010404500000000    -0.025836000000000     0.000000000000000
    -0.000000000000028    -0.000000000000004    -0.004551714696639
2 12
     0.029719674199548    -0.030202576689132     0.000000000000000
    -0.029873500000001     0.015661000000000     0.000000000000000
    -0.000000000000057    -0.000000000000004     0.000638422321087
2 13
     0.017564443892930     0.054155649134195     0.000000000000000
    -0.060179500000004    -0.047844500000000     0.000000000000000
    -0.000000000000057    -0.000000000000004     0.016256123916568
2 14
     0.021244685100058    -0.331952615332225     0.000000000000000
    -0.046457500000002    -0.039818000000000     0.000000000000000
    -0.000000000000057    -0.000000000000004     0.076102305200689
2 15
    -0.066630462090501     0.182823454854792     0.000000000000000
     0.065358999999994    -0.286078000000000     0.000000000000000
    -0.000000000000057    -0.000000000000004    -0.027396987507389
2 16
    -0.005579086382745     0.043682008290248     0.000000000000000
     0.013027500000000    -0.117539500000000     0.000000000000000
    -0.000000000000028    -0.000000000000004    -0.002498516984995
2 17
    -0.001020748999373    -0.006045354444193     0.000000000000000
     0.007440500000001     0.068413499999999     0.000000000000000
     0.000000000000028    -0.000000000000004     0.011680763948778
2 18
    -0.154872070773663    -0.109655158432505     0.000000000000000