 128  128
1 1
    33.515260924918358     3.950634929929771    -0.000000000000000
     3.954384872022776    39.656785355514785     0.000000000000000
    -0.000000000000013     0.000000000000000    10.545823526234829
1 2
    -0.036799469534300    -0.148735058828532    -0.000000000000000
     0.004948437310908     0.017691690758966    -0.000000000000000
    -0.000000000000011    -0.000000000000021    -0.046681732632957
1 3
     0.085835841434550     0.129437694682384    -0.000000000000000
     0.130819288107393     0.192734384746906    -0.000000000000000
    -0.000000000000011    -0.000000000000021    -0.056109459013354
1 4
    -0.037076531474661     0.006037384911533    -0.000000000000000
    -0.148628605372480     0.017938365505636    -0.000000000000000
    -0.000000000000011    -0.000000000000021    -0.046617098102217
1 5
     0.009226675691693     0.008354443657222    -0.000000000000000
     0.043410425898253    -0.113455031824465     0.000000000000000
    -0.000000000000011    -0.000000000000021     0.034681997684481
1 6
    -0.036028313800294    -0.397932777232018    -0.000000000000000
     0.003890312865140    -0.261988929332666     0.000000000000000
    -0.000000000000011    -0.000000000000021     0.010301406933852
1 7
     0.064394838794270     0.051507353946139    -0.000000000000000
     0.041087923441111     0.053844525340747     0.000000000000000
    -0.000000000000007    -0.000000000000021     0.013127496071049
1 8
     0.042585446388841     0.211546539941406    -0.000000000000000
     0.019997898639303     0.163830964266161     0.000000000000000
    -0.000000000000011    -0.000000000000021     0.026954828095631
1 9
     0.042996934678046     0.097719233287705    -0.000000000000000
     0.095754994540231     0.160911073845238    -0.000000000000000
    -0.000000000000011    -0.000000000000021    -0.007720483258084
1 10
     0.026030482374596     0.030099188276562    -0.000000000000000
     0.144612735941815     0.130642082709038    -0.000000000000000
    -0.000000000000007    -0.000000000000021    -0.017215072946143
1 11
     0.037071913775653     0.047022028978294    -0.000000000000000
     0.047844323331008     0.138806046023777     0.000000000000000
    -0.000000000000011    -0.000000000000021     0.024474199381356
1 12
     0.025348089077040     0.145594510426776    -0.000000000000000
     0.029560454923068     0.130841107058352    -0.000000000000000
    -0.000000000000011    -0.000000000000021    -0.017141523307714
1 13
     0.008958849149344     0.044888652037514    -0.000000000000000
     0.006288350792053    -0.119473882005042     0.000000000000000
    -0.000000000000011    -0.000000000000021     0.034441289776896
1 14
     0.042776311281088     0.019763238668087    -0.000000000000000
     0.210432332157756     0.157647012276719     0.000000000000000
    -0.000000000000011    -0.000000000000021     0.026925853995644
1 15
     0.064453842726012     0.039918981751697    -0.000000000000000
     0.052587091221202     0.048229746227687     0.000000000000000
    -0.000000000000011    -0.000000000000021     0.013109665855672
1 16
    -0.036586029224688     0.004895787101713    -0.000000000000000
    -0.398615647597925    -0.267633278184942     0.000000000000000
    -0.000000000000011    -0.000000000000021     0.010490852972229
1 17
     0.105485689938163     0.207966283978742    -0.000000000000000
     0.208614843415965    -0.072225352543079    -0.000000000000000
     0.000000000000011     0.000000000000021    -0.053343546853053
1 18
     0.090087202986089     0.341447030679728    -0.000000000000000
     0.343809803168400    -0.068618888319701     0.000000000000000
     0.000000000000011     0.000000000000021     0.476260654148423
1 19
    -0.052961929133032    -0.029799037841176    -0.000000000000000
    -0.029169133373017     0.151321475505714    -0.000000000000000
     0.000000000000011     0.000000000000021    -0.084660091385193
1 20
    -0.117864201740296    -0.131155991790287    -0.000000000000000
    -0.132202814383461    -0.111116439313406    -0.000000000000000
     0.000000000000011     0.000000000000021    -0.042092680950395
1 21
    -0.031806197675792    -0.081518292863919    -0.000000000000000
    -0.080458862326092    -0.260904533905343     0.000000000000000
     0.000000000000011     0.000000000000021     0.006996130758408
1 22
    -0.003450447312829    -0.055368776470502    -0.000000000000000
    -0.052822777752446    -0.142377746885167     0.000000000000000
     0.000000000000011     0.000000000000021     0.032283833716323
1 23
    -0.035028325426657    -0.066506153395352    -0.000000000000000
    -0.065337325330340    -0.062358007865271    -0.000000000000000
     0.000000000000011     0.000000000000021    -0.026738636734189
1 24
    -0.120626098823564    -0.045109275434459    -0.000000000000000
    -0.045734626784801    -0.098863769956761     0.000000000000000
     0.000000000000011     0.000000000000021     0.019764793745002
1 25
     0.057000876530298    -0.028947841991066    -0.000000000000000
    -0.028548721262840    -0.197176243421925    -0.000000000000000
     0.000000000000011     0.000000000000021    -0.053952002952781
1 26
    -0.009340065856174    -0.088253976480697    -0.000000000000000
    -0.086700765046638    -0.263190512693438    -0.000000000000000
     0.000000000000011     0.000000000000021    -0.029081081279295
1 27
    -0.072368065744662    -0.094868060690324    -0.000000000000000
    -0.094539718132259    -0.126282190103908     0.000000000000000
     0.000000000000011     0.000000000000021     0.014444703231998
1 28
    -0.022949450982246     0.020907914943919    -0.000000000000000
     0.019731105354024    -0.053701021629319     0.000000000000000
     0.000000000000011     0.000000000000021     0.012351881702165
1 29
    -1.826696565917334    -0.842773680200178    -0.000000000000000
    -0.842344524976827     0.228871288547129     0.000000000000000
     0.000000000000011     0.000000000000022     0.967904326613039
1 30
     0.067775507544344     0.017253262719489    -0.000000000000000
     0.018545484040887    -0.249017397645400     0.000000000000000
     0.000000000000011     0.000000000000021     0.150736640794087
1 31
    -0.069315253624016    -0.090797815555348    -0.000000000000000
    -0.090895905304919    -0.228626495441066     0.000000000000000
     0.000000000000011     0.000000000000021     0.062588513525839
1 32
    -0.034755368107634    -0.025256761252258    -0.000000000000000
    -0.026805181090264     0.112419007315424    -0.000000000000000
     0.000000000000011     0.000000000000021    -0.003158176898587
1 33
   -17.859283380106625    -0.340672796479715    -0.000000000000000
    -1.406651300679918    -2.911791971966391    -0.000000000000000
    -0.000000000000014     0.000000000000013    -4.842456932271570
1 34
    -0.205208491516810    -0.032342876915823    -0.000000000000000
     0.240580263871525    -0.009528875027314    -0.000000000000000
    -0.000000000000014     0.000000000000014    -0.167945027409464
1 35
     0.131225770353048    -0.175561837742837    -0.000000000000000
     0.138247109979339    -0.176981925399527    -0.000000000000000
    -0.000000000000014     0.000000000000021    -0.015507829823830
1 36
     0.034794875088018     0.013177373730180    -0.000000000000000
     0.057441514256290     0.034076038757664     0.000000000000000
    -0.000000000000021     0.000000000000014     0.019923036906470
1 37
     0.074379843278287    -0.162035571198871    -0.000000000000000
    -0.186280192311745     0.260189753993522     0.000000000000000
    -0.000000000000014     0.000000000000022     0.050049414562219
1 38
    -0.122714838007283     0.200722653471299    -0.000000000000000
    -0.087016249796815    -0.093454533613116    -0.000000000000000
    -0.000000000000014     0.000000000000021    -0.089106501344742
1 39
     0.028977087418106    -0.056002427389664    -0.000000000000000
    -0.007496838740067    -0.112694463695004     0.000000000000000
    -0.000000000000021     0.000000000000007     0.040799990335589
1 40
     0.137745961349545    -0.132483323715686    -0.000000000000000
     0.089795068529941    -0.135615941433826    -0.000000000000000
    -0.000000000000014     0.000000000000014    -0.056671110797718
1 41
     0.003981995776190     0.014117845094400    -0.000000000000000
     0.047299482523201     0.023335334023752     0.000000000000000
    -0.000000000000021     0.000000000000014     0.034490322869182
1 42
     0.007686416534348     0.023427126290535    -0.000000000000000
     0.098453484602462    -0.193946635297760    -0.000000000000000
    -0.000000000000021     0.000000000000021    -0.048253020363023
1 43
     0.065653418312245    -0.081405928854778    -0.000000000000000
     0.115319195211654    -0.151206945787873    -0.000000000000000
    -0.000000000000007     0.000000000000014    -0.001823139522261
1 44
     0.115670281634770    -0.164553756390152    -0.000000000000000
     0.115214976677688    -0.113535780596234     0.000000000000000
    -0.000000000000021     0.000000000000021     0.013796129147673
1 45
    -0.092306776974986     0.266232923114355    -0.000000000000000
     0.163983679390164    -0.046995946408334    -0.000000000000000
    -0.000000000000014     0.000000000000021    -0.116587320793984
1 46
     0.003608988312038     0.046583347572721    -0.000000000000000
     0.018214874488049    -0.137504478121219     0.000000000000000
    -0.000000000000014     0.000000000000007     0.003866927959808
1 47
     0.086904582215613    -0.116215170117481    -0.000000000000000
     0.118152318626798    -0.055597284753730    -0.000000000000000
    -0.000000000000021     0.000000000000021    -0.016278986638869
1 48
     0.026115140189706    -0.022495890324322    -0.000000000000000
     0.207086807156614     0.023533343200217     0.000000000000000
    -0.000000000000014     0.000000000000014     0.042874981650045
1 49
    -0.151104964573957    -0.128347917716962    -0.000000000000000
    -0.393611085627096     0.187730670998327     0.000000000000000
     0.000000000000014    -0.000000000000007     0.030924279793854
1 50
     0.200744715810991     0.156379402994165    -0.000000000000000
     0.183500289802193     0.180072384693247    -0.000000000000000
     0.000000000000021    -0.000000000000007    -0.053147414483910
1 51
    -0.057813591555355     0.042914329173605    -0.000000000000000
     0.005595224888914    -0.052315217561468    -0.000000000000000
     0.000000000000021    -0.000000000000014    -0.004653686213302
1 52
    -0.066986907169650     0.102121439673443    -0.000000000000000
     0.039592840701975    -0.022682418076343    -0.000000000000000
     0.000000000000014    -0.000000000000014    -0.003296361067756
1 53
    -0.033177141202913     0.004859871665001    -0.000000000000000
    -0.112845827738155     0.112934882576258    -0.000000000000000
     0.000000000000021    -0.000000000000014    -0.008313337919357
1 54
    -0.063515936750122     0.058954676287513    -0.000000000000000
    -0.193689758979509     0.230214930584197     0.000000000000000
     0.000000000000014    -0.000000000000007     0.010143163772384
1 55
    -0.072965288149437     0.111876585362488    -0.000000000000000
    -0.065223585738902     0.077008675847885    -0.000000000000000
     0.000000000000014    -0.000000000000007    -0.036554170299027
1 56
     0.001571043817378     0.019350724223557    -0.000000000000000
    -0.073201056117838     0.013663729895057     0.000000000000000
     0.000000000000021    -0.000000000000007     0.038265870975185
1 57
     0.091673126055820    -0.172321752273611    -0.000000000000000
    -0.190087188784716     0.340141592410507    -0.000000000000000
     0.000000000000014    -0.000000000000014    -0.060932532272734
1 58
    -0.060235831222847     0.099333888706809    -0.000000000000000
    -0.176270982816263     0.261910201645698    -0.000000000000000
     0.000000000000021    -0.000000000000014    -0.006298523581797
1 59
    -0.087893282880565     0.180646950503800    -0.000000000000000
    -0.072983486968766     0.155844295994196    -0.000000000000000
     0.000000000000021    -0.000000000000021     0.001319435937871
1 60
     0.047024594366629    -0.011392889603183    -0.000000000000000
     0.020909620433464     0.014219506889134     0.000000000000000
     0.000000000000021    -0.000000000000014     0.032027524370284
1 61
    -1.999074756734355     0.926006678628335    -0.000000000000000
     1.129112706186252   -19.597331178614859    -0.000000000000000
     0.000000000000015    -0.000000000000026    -4.418953656645694
1 62
    -0.135138500644146     0.083385382495358    -0.000000000000000
    -0.228420359347322     0.143601422143615     0.000000000000000
     0.000000000000014    -0.000000000000007     0.009837821334059
1 63
    -0.087904570589245     0.111656988120874    -0.000000000000000
    -0.203113658866460     0.219188123483438     0.000000000000000
     0.000000000000021    -0.000000000000014     0.037577178906262
1 64
     0.011415465020548    -0.096844435864899    -0.000000000000000
     0.178951174856056    -0.187912430508714    -0.000000000000000
     0.000000000000021    -0.000000000000014    -0.006516943720161
1 65
    -0.247183375481523     0.233665831257905    -0.000000000000000
     0.377668013198242     0.201617094438564    -0.000000000000000
    -0.000000000000014     0.000000000000021    -0.592288551934964
1 66
    -0.224439155566213     0.394380740541056    -0.000000000000000
     0.229423213367156     0.584882868974688     0.000000000000000
    -0.000000000000014     0.000000000000014     0.367235573451055
1 67
    -0.029571231356876    -0.111962782410604    -0.000000000000000
    -0.024814121990492    -0.052197443066966     0.000000000000000
    -0.000000000000014     0.000000000000021     0.060018733734681
1 68
     0.198466137890357    -0.158527659187300    -0.000000000000000
    -0.133747776829114    -0.040579825015545     0.000000000000000
    -0.000000000000014     0.000000000000014     0.073449343467133
1 69
    -0.060687339570102    -0.082996982701182    -0.000000000000000
     0.009147759176617    -0.187027626934963    -0.000000000000000
    -0.000000000000014     0.000000000000021    -0.060754230118968
1 70
     0.076856469178512    -0.015474422446836    -0.000000000000000
     0.173175684887582    -0.252461482254564     0.000000000000000
    -0.000000000000014     0.000000000000021     0.034051253815532
1 71
     0.077171498866257    -0.113343474413401    -0.000000000000000
     0.088531706571139    -0.091699128049932     0.000000000000000
    -0.000000000000007     0.000000000000014     0.079663173525891
1 72
     0.045897875809160    -0.119199229830706    -0.000000000000000
    -0.002681251281107    -0.067186484887749     0.000000000000000
    -0.000000000000007     0.000000000000014     0.047033879386646
1 73
    -0.091772150045621    -0.006163088940035    -0.000000000000000
     0.180214536839383    -0.334447787571570    -0.000000000000000
    -0.000000000000014     0.000000000000007    -0.041698187435187
1 74
     0.035579370841376    -0.129587000283575    -0.000000000000000
     0.110703330510219    -0.345954872980968    -0.000000000000000
    -0.000000000000007     0.000000000000021    -0.024095307304603
1 75
     0.143361596418533    -0.196971542645407    -0.000000000000000
     0.124054620968700    -0.180399418764779    -0.000000000000000
    -0.000000000000014     0.000000000000014    -0.039556332813069
1 76
     0.002560257560003    -0.000394556726182    -0.000000000000000
     0.020071354533698    -0.035092078184629    -0.000000000000000
    -0.000000000000014     0.000000000000014    -0.155787049299520
1 77
    -0.553413781230681     1.341555977568312    -0.000000000000000
    -0.300707629732859    -1.053239767512931     0.000000000000000
    -0.000000000000021     0.000000000000020     0.663977161633654
1 78
     0.114931962871474    -0.144010126590043    -0.000000000000000
     0.000180372251073    -0.338343909145031    -0.000000000000000
    -0.000000000000021     0.000000000000014    -0.080209223871800
1 79
     0.076612244208857    -0.153083905136871    -0.000000000000000
     0.128798854742374    -0.280073158318771    -0.000000000000000
    -0.000000000000021     0.000000000000021    -0.058855312181356
1 80
    -0.089468944396952     0.260447972415150    -0.000000000000000
    -0.130972641633026     0.556785892814691    -0.000000000000000
    -0.000000000000014     0.000000000000007    -0.073315616851808
1 81
     0.571938963487490    -0.103925933829462    -0.000000000000000
    -0.262465036677163    -0.269342629144074     0.000000000000000
    -0.000000000000014     0.000000000000011     0.629892476164291
1 82
    -8.352848498755154    -4.350163378707203    -0.000000000000000
    -4.967833205925661   -12.518198857600570    -0.000000000000000
    -0.000000000000019     0.000000000000005    -5.589591989644937
1 83
     0.059441073916146    -0.044696247912260    -0.000000000000000
     0.162941685803290    -0.131841550571959    -0.000000000000000
    -0.000000000000007     0.000000000000011    -0.029847780540490
1 84
     0.011624800708818    -0.078928276799212    -0.000000000000000
     0.004573243122298    -0.108031324303635    -0.000000000000000
    -0.000000000000007     0.000000000000011    -0.094136850857876
1 85
     0.079992399881267    -0.147953641541182    -0.000000000000000
     0.025259444915395    -0.093746434740915     0.000000000000000
    -0.000000000000014     0.000000000000011     0.074053342013017
1 86
    -0.042671130359286    -0.068001261717969    -0.000000000000000
     0.107655935971778    -0.110231634412674    -0.000000000000000
    -0.000000000000014     0.000000000000011    -0.028280950364268
1 87
    -0.026727754924506     0.055520134382368    -0.000000000000000
     0.009939560924703    -0.096291399311198    -0.000000000000000
    -0.000000000000014     0.000000000000011    -0.018394095937923
1 88
     0.053791575721116    -0.074519400403799    -0.000000000000000
     0.062048052677348    -0.117588308022741    -0.000000000000000
    -0.000000000000014     0.000000000000011    -0.079558421010553
1 89
    -0.006475553239440     0.004506361152208    -0.000000000000000
     0.000187468109896    -0.058944612317479     0.000000000000000
    -0.000000000000021     0.000000000000011     0.096784637841306
1 90
    -0.008469373054707    -0.055329269490120    -0.000000000000000
     0.156913960813700    -0.256867696836716     0.000000000000000
    -0.000000000000014     0.000000000000011     0.031271968993699
1 91
     0.065474867284010    -0.070748279548884    -0.000000000000000
     0.099062539083356    -0.155062092565759     0.000000000000000
    -0.000000000000007     0.000000000000011     0.068851376676883
1 92
     0.088735756410330    -0.095929618384037    -0.000000000000000
     0.148970951732796    -0.157363680420767     0.000000000000000
    -0.000000000000014     0.000000000000011     0.092951141535330
1 93
    -0.278077834142461     0.346264829976004    -0.000000000000000
     0.152644865861557     0.605682984235175    -0.000000000000000
    -0.000000000000014     0.000000000000011    -0.200832859671670
1 94
    -0.126037015903281    -0.025681076483140    -0.000000000000000
    -0.013198068313194    -0.150924574196747    -0.000000000000000
    -0.000000000000021     0.000000000000011    -0.031782358908855
1 95
     0.085463347048066    -0.111065922648102    -0.000000000000000
    -0.032167186691378    -0.162881088979285     0.000000000000000
    -0.000000000000014     0.000000000000011     0.019187540522183
1 96
     0.061358958236642    -0.015412853126756    -0.000000000000000
     0.144308471713114    -0.008514275441224     0.000000000000000
    -0.000000000000014     0.000000000000011     0.058819651750603
1 97
     1.333533495161856    -0.023344007708427    -0.000000000000000
    -0.163970095084217    -3.041071798727103     0.000000000000000
     0.000000000000014    -0.000000000000012     0.963243954068970
1 98
    -0.167998046770975    -0.027892954307022    -0.000000000000000
    -0.197061379286350    -0.049731122447502    -0.000000000000000
     0.000000000000014    -0.000000000000011    -0.029219265448463
1 99
     0.026980189136834     0.067555910302723    -0.000000000000000
     0.045916668891163     0.109793929506713    -0.000000000000000
     0.000000000000014    -0.000000000000011    -0.000646345307403
1 100
    -0.320878773151581     0.083966699492446    -0.000000000000000
     0.291355192703506     0.077033863768614    -0.000000000000000
     0.000000000000007    -0.000000000000011    -0.219625906678645
1 101
     0.020904323400247     0.027513276833197    -0.000000000000000
    -0.073156621265746     0.102032720235774    -0.000000000000000
     0.000000000000007    -0.000000000000011    -0.009432183934241
1 102
    -0.041809159878165     0.025434286125153    -0.000000000000000
    -0.128002238879191     0.094466324979885    -0.000000000000000
     0.000000000000014    -0.000000000000011    -0.067955408354207
1 103
    -0.074772347693795     0.059155802733107    -0.000000000000000
    -0.120005017164207     0.101799700876935    -0.000000000000000
     0.000000000000021    -0.000000000000011    -0.122845726391183
1 104
    -0.041721936674717     0.144214844579311    -0.000000000000000
    -0.012656481467378     0.142979422100545    -0.000000000000000
     0.000000000000014    -0.000000000000011    -0.025046995050330
1 105
     0.031934980170293     0.039791225412532    -0.000000000000000
    -0.181894348460578     0.297700082079080    -0.000000000000000
     0.000000000000014    -0.000000000000010     0.013876365116868
1 106
    -0.044392505933196     0.086978978477370    -0.000000000000000
    -0.082141684917318     0.159981974199038     0.000000000000000
     0.000000000000014    -0.000000000000011     0.008846015603734
1 107
    -0.104786365077583     0.072471707433463    -0.000000000000000
    -0.095193378108132     0.161320380984700     0.000000000000000
     0.000000000000007    -0.000000000000011     0.012585903278983
1 108
    -0.021928426424248     0.008065067852845    -0.000000000000000
    -0.043185995364631     0.127042412333982     0.000000000000000
     0.000000000000014    -0.000000000000011     0.155405928445844
1 109
     0.203946833532832    -0.099665336879911    -0.000000000000000
     0.004202289530355     0.483444768081750    -0.000000000000000
     0.000000000000007    -0.000000000000010    -0.288564205655489
1 110
    -0.119299793053502     0.094695153516431    -0.000000000000000
    -0.049657935948805     0.178304122341002     0.000000000000000
     0.000000000000007    -0.000000000000007     0.058496479096901
1 111
    -0.039289948531545     0.068412750007173    -0.000000000000000
    -0.039028502731092     0.074176424721511     0.000000000000000
     0.000000000000021    -0.000000000000011     0.093151731458317
1 112
     0.054362118087193    -0.767041877268465    -0.000000000000000
     0.196469870928347    -0.961335363630267     0.000000000000000
     0.000000000000007    -0.000000000000011     0.049017490847297
1 113
    -1.774582241090737     1.461769561947339    -0.000000000000000
     2.394421374710440    -0.811274385148693     0.000000000000000
     0.000000000000016    -0.000000000000022     0.761749147651442
1 114
    -2.088318973113012    -2.136080347009930    -0.000000000000000
    -1.057453568008444    -0.178101283003471     0.000000000000000
     0.000000000000014    -0.000000000000021     0.473566062849628
1 115
    -0.124552169134013     0.216987215525830    -0.000000000000000
    -0.155616610848526     0.250526089928442     0.000000000000000
     0.000000000000014    -0.000000000000021     0.010501996856839
1 116
    -0.003249320867234    -0.023050014205047    -0.000000000000000
     0.031203094470310     0.021781890163414     0.000000000000000
     0.000000000000021    -0.000000000000014     0.144406914335381
1 117
    -0.029893444131965     0.168048841460042    -0.000000000000000
     0.104484911183022     0.003591191744686    -0.000000000000000
     0.000000000000014    -0.000000000000021    -0.051890384299857
1 118
     0.054863908045846    -0.072922702703050    -0.000000000000000
    -0.091257370783762     0.155939526178230     0.000000000000000
     0.000000000000014    -0.000000000000014     0.011707765171684
1 119
    -0.056631460609818     0.021054142079112    -0.000000000000000
    -0.045530129082682     0.058018252056417     0.000000000000000
     0.000000000000021    -0.000000000000014     0.076304406704317
1 120
    -0.102469306331894     0.158808825749002    -0.000000000000000
    -0.068023245258249     0.133355962456129     0.000000000000000
     0.000000000000014    -0.000000000000014     0.045121588787501
1 121
     0.066705740607944     0.034447521507236    -0.000000000000000
     0.050113795839287     0.120892492690619    -0.000000000000000
     0.000000000000021    -0.000000000000021    -0.014362238485881
1 122
     0.028297259508882     0.052366245961256    -0.000000000000000
    -0.134694025759963     0.348870861682808    -0.000000000000000
     0.000000000000021    -0.000000000000021    -0.012144605448412
1 123
    -0.077491146253006     0.120021693331438    -0.000000000000000
    -0.089511093273021     0.166765204986884    -0.000000000000000
     0.000000000000021    -0.000000000000014    -0.007477546573577
1 124
    -0.125853847176042     0.162933970194377    -0.000000000000000
    -0.134760362755280     0.123733177205672    -0.000000000000000
     0.000000000000021    -0.000000000000014    -0.136436808062025
1 125
     0.130975901529052    -0.314803420492666    -0.000000000000000
     0.246992404897487    -0.104295825631521     0.000000000000000
     0.000000000000021    -0.000000000000021     0.637559468776245
1 126
     0.087347368242519    -0.034804623563698    -0.000000000000000
     0.060405180292818     0.374559675232618    -0.000000000000000
     0.000000000000014    -0.000000000000021    -0.017337655676857
1 127
    -0.109810421596134     0.171464399491494    -0.000000000000000
     0.039581901470285     0.165035512305515    -0.000000000000000
     0.000000000000014    -0.000000000000014    -0.081920924547958
1 128
     0.002974824315210    -0.025869375987050    -0.000000000000000
     0.025687718965202    -0.125844927389597    -0.000000000000000
     0.000000000000007    -0.000000000000021    -0.040646204727966
2 1
    -0.037076531474661     0.006037384911533     0.000000000000000
    -0.148628605372480     0.017938365505636    -0.000000000000000
    -0.000000000000011    -0.000000000000021    -0.046617098102217
2 2
    33.515260924918358     3.950634929929770     0.000000000000000
     3.954384872022774    39.656785355514785     0.000000000000000
    -0.000000000000013     0.000000000000000    10.545823526234829
2 3
    -0.036799469534300    -0.148735058828532     0.000000000000000
     0.004948437310908     0.017691690758966    -0.000000000000000
    -0.000000000000011    -0.000000000000021    -0.046681732632957
2 4
     0.085835841434550     0.129437694682384     0.000000000000000
     0.130819288107393     0.192734384746906    -0.000000000000000
    -0.000000000000011    -0.000000000000021    -0.056109459013354
2 5
     0.042585446388841     0.211546539941406     0.000000000000000
     0.019997898639303     0.163830964266161     0.000000000000000
    -0.000000000000011    -0.000000000000021     0.026954828095631
2 6
     0.009226675691693     0.008354443657222     0.000000000000000
     0.043410425898253    -0.113455031824465     0.000000000000000
    -0.000000000000011    -0.000000000000021     0.034681997684481
2 7
    -0.036028313800294    -0.397932777232018     0.000000000000000
     0.003890312865140    -0.261988929332666     0.000000000000000
    -0.000000000000011    -0.000000000000021     0.010301406933852
2 8
     0.064394838794270     0.051507353946139     0.000000000000000
     0.041087923441111     0.053844525340747     0.000000000000000
    -0.000000000000007    -0.000000000000021     0.013127496071049
2 9
     0.025348089077040     0.145594510426776     0.000000000000000
     0.029560454923068     0.130841107058352    -0.000000000000000
    -0.000000000000011    -0.000000000000021    -0.017141523307714
2 10
     0.042996934678046     0.097719233287705     0.000000000000000
     0.095754994540231     0.160911073845238    -0.000000000000000
    -0.000000000000011    -0.000000000000021    -0.007720483258084
2 11
     0.026030482374596     0.030099188276562     0.000000000000000
     0.144612735941815     0.130642082709038    -0.000000000000000
    -0.000000000000007    -0.000000000000021    -0.017215072946143
2 12
     0.037071913775653     0.047022028978294     0.000000000000000
     0.047844323331008     0.138806046023777     0.000000000000000
    -0.000000000000011    -0.000000000000021     0.024474199381356
2 13
    -0.036586029224688     0.004895787101713     0.000000000000000
    -0.398615647597925    -0.267633278184942     0.000000000000000
    -0.000000000000011    -0.000000000000021     0.010490852972229
2 14
     0.008958849149344     0.044888652037514     0.000000000000000
     0.006288350792053    -0.119473882005042     0.000000000000000
    -0.000000000000011    -0.000000000000021     0.034441289776896
2 15
     0.042776311281088     0.019763238668087     0.000000000000000
     0.210432332157756     0.157647012276719     0.000000000000000
    -0.000000000000011    -0.000000000000021     0.026925853995644
2 16
     0.064453842726012     0.039918981751697     0.000000000000000
     0.052587091221202     0.048229746227687     0.000000000000000
    -0.000000000000011    -0.000000000000021     0.013109665855672
2 17
    -0.117864201740296    -0.131155991790287     0.000000000000000
    -0.132202814383461    -0.111116439313406    -0.000000000000000
     0.000000000000011     0.000000000000021    -0.042092680950395
2 18
     0.105485689938163     0.207966283978742     0.000000000000000