 128  128
1 1
    24.346746315811458    -0.000000000000000    -0.000000000000000
    -0.000000000000007    42.225135293948377    -0.000000000000000
    -0.000000000000007    -0.000000000000014    11.501545691979207
1 2
    -0.314647792068495     0.006308263887515    -0.000000000000000
    -0.011407689410584    -0.113666459296424    -0.000000000000000
     0.000000000000000    -0.000000000000000     0.029445498708181
1 3
     0.546090884162867    -0.000000000000000    -0.000000000000000
    -0.000000000000000     0.595195881584166     0.000000000000000
    -0.000000000000000     0.000000000000007    -0.001691325015548
1 4
    -0.314647792068495    -0.006308263887515    -0.000000000000000
     0.011407689410584    -0.113666459296425    -0.000000000000000
     0.000000000000000     0.000000000000004     0.029445498708181
1 5
     0.096926966291402    -0.000000000000000    -0.000000000000000
    -0.000000000000000    -0.968748245027854    -0.000000000000000
    -0.000000000000000    -0.000000000000000     0.545062373135545
1 6
     0.120377294735021    -0.047926766385316    -0.000000000000000
    -0.095220330717278     0.144615315177400     0.000000000000000
     0.000000000000000     0.000000000000004    -0.002847063776172
1 7
    -0.197451125062392    -0.000000000000000    -0.000000000000000
     0.000000000000000    -0.037533254948287     0.000000000000000
     0.000000000000000     0.000000000000004    -0.000230208127116
1 8
     0.120377294735021     0.047926766385316    -0.000000000000000
     0.095220330717278     0.144615315177401     0.000000000000000
    -0.000000000000000     0.000000000000004    -0.002847063776172
1 9
     0.134790151730791    -0.000000000000000    -0.000000000000000
    -0.000000000000000     0.626984139332996    -0.000000000000000
    -0.000000000000000     0.000000000000007     0.051721658600457
1 10
     0.057116694864362    -0.043168293396720    -0.000000000000000
     0.039962614769734     0.133074084560564    -0.000000000000000
    -0.000000000000000    -0.000000000000000    -0.000368802815890
1 11
    -0.098306447384094    -0.000000000000000    -0.000000000000000
     0.000000000000000    -0.037221477111664    -0.000000000000000
     0.000000000000000     0.000000000000004    -0.000093962500864
1 12
     0.057116694864362     0.043168293396720    -0.000000000000000
    -0.039962614769734     0.133074084560566     0.000000000000000
    -0.000000000000000     0.000000000000004    -0.000368802815890
1 13
     0.099721634026843    -0.000000000000000    -0.000000000000000
    -0.000000000000000    -0.978137554492548    -0.000000000000000
    -0.000000000000000     0.000000000000007     0.545024788135200
1 14
     0.120561773410318     0.093810665228063    -0.000000000000000
     0.040527848365165     0.145850435068668     0.000000000000000
    -0.000000000000000     0.000000000000007    -0.002886997839039
1 15
    -0.199858699294830    -0.000000000000000    -0.000000000000000
     0.000000000000000    -0.026462961483293     0.000000000000000
     0.000000000000000     0.000000000000004    -0.000277189377548
1 16
     0.120561773410318    -0.093810665228063    -0.000000000000000
    -0.040527848365165     0.145850435068672     0.000000000000000
    -0.000000000000000     0.000000000000004    -0.002886997839039
1 17
    -0.436071032718292     0.317047715111635    -0.000000000000000
     0.312099970724616     0.211297072519965    -0.000000000000000
    -0.000000000000000    -0.000000000000004     0.354933950762769
1 18
    -0.436071032718292    -0.317047715111635    -0.000000000000000
    -0.312099970724616     0.211297072519968    -0.000000000000000
     0.000000000000000    -0.000000000000004     0.354933950762769
1 19
     0.000779571176252    -0.288429433363286    -0.000000000000000
    -0.288596718424728    -0.091185206023951     0.000000000000000
     0.000000000000000    -0.000000000000000    -0.001505749076342
1 20
     0.000779571176252     0.288429433363286    -0.000000000000000
     0.288596718424728    -0.091185206023953     0.000000000000000
    -0.000000000000000    -0.000000000000004    -0.001505749076342
1 21
     0.117197800515629    -0.569945875507136    -0.000000000000000
    -0.569681880264465    -0.176925746295973    -0.000000000000000
     0.000000000000000    -0.000000000000000     0.033281517805944
1 22
     0.117197800515629     0.569945875507135    -0.000000000000000
     0.569681880264465    -0.176925746295973    -0.000000000000000
    -0.000000000000000    -0.000000000000007     0.033281517805944
1 23
     0.002468783746823     0.480597837281478    -0.000000000000000
     0.476347478419117    -0.090860346599774     0.000000000000000
    -0.000000000000000    -0.000000000000007    -0.001576220951990
1 24
     0.002468783746823    -0.480597837281479    -0.000000000000000
    -0.476347478419117    -0.090860346599775     0.000000000000000
     0.000000000000000    -0.000000000000004    -0.001576220951990
1 25
    -0.032114875257537    -0.021055222815964    -0.000000000000000
    -0.017755529769686     0.054073287208036     0.000000000000000
     0.000000000000000    -0.000000000000007    -0.017357222972058
1 26
    -0.032114875257537     0.021055222815964    -0.000000000000000
     0.017755529769686     0.054073287208034     0.000000000000000
    -0.000000000000000    -0.000000000000007    -0.017357222972058
1 27
    -0.007610099577700    -0.037457672406594    -0.000000000000000
    -0.046115321447868    -0.045981235175470     0.000000000000000
     0.000000000000000    -0.000000000000004    -0.000305378127807
1 28
    -0.007610099577700     0.037457672406594    -0.000000000000000
     0.046115321447868    -0.045981235175472     0.000000000000000
    -0.000000000000000    -0.000000000000004    -0.000305378127807
1 29
    -0.105814814481869     0.074165244884602    -0.000000000000000
     0.072011959203434     0.165918680504138    -0.000000000000000
     0.000000000000000    -0.000000000000004     0.003434329406570
1 30
    -0.105814814481869    -0.074165244884602    -0.000000000000000
    -0.072011959203434     0.165918680504135    -0.000000000000000
     0.000000000000000    -0.000000000000004     0.003434329406570
1 31
     0.014508355173304    -0.094276821020479    -0.000000000000000
    -0.098042138165249    -0.058806096570742     0.000000000000000
     0.000000000000000    -0.000000000000004    -0.000371151878412
1 32
     0.014508355173304     0.094276821020479    -0.000000000000000
     0.098042138165249    -0.058806096570741     0.000000000000000
    -0.000000000000000    -0.000000000000004    -0.000371151878412
1 33
     2.696162923890205    -0.000000000000000    -0.000000000000000
    -0.000000000000001    -5.940994265209369    -0.000000000000000
    -0.000000000000000     0.000000000000014     1.434356368185476
1 34
     0.522172132907781    -0.164797266025413    -0.000000000000000
    -0.110944944019678    -0.231216514897035     0.000000000000000
    -0.000000000000000     0.000000000000028    -0.009654646963751
1 35
    -0.574291467651021    -0.000000000000000    -0.000000000000000
     0.000000000000000    -0.079859821601730    -0.000000000000000
     0.000000000000000     0.000000000000014     0.000587265630399
1 36
     0.522172132907781     0.164797266025413    -0.000000000000000
     0.110944944019678    -0.231216514897028     0.000000000000000
    -0.000000000000000     0.000000000000014    -0.009654646963751
1 37
    -8.058538049474890    -0.000000000000000    -0.000000000000000
     0.000000000000001   -14.534569291433957     0.000000000000000
     0.000000000000002     0.000000000000043    -5.936729333324028
1 38
    -0.218192365739755     0.032137545448045    -0.000000000000000
     0.122882437726075     0.093621106639176     0.000000000000000
    -0.000000000000000     0.000000000000014    -0.000293632815199
1 39
     0.321556249249830    -0.000000000000000    -0.000000000000000
    -0.000000000000000    -0.792510917276772    -0.000000000000000
    -0.000000000000000     0.000000000000014     0.000427529378930
1 40
    -0.218192365739755    -0.032137545448045    -0.000000000000000
    -0.122882437726075     0.093621106639183    -0.000000000000000
     0.000000000000000     0.000000000000014    -0.000293632815199
1 41
     0.017822737026247    -0.000000000000000    -0.000000000000000
    -0.000000000000000     0.819784937188189     0.000000000000000
    -0.000000000000000     0.000000000000014    -0.170457372816948
1 42
    -0.123016671665451     0.081713568193159    -0.000000000000000
    -0.066437567708282    -0.205911818978159    -0.000000000000000
     0.000000000000000     0.000000000000028     0.000864455007947
1 43
     0.114425519593319    -0.000000000000000    -0.000000000000000
    -0.000000000000000    -0.026383381825681     0.000000000000000
    -0.000000000000000     0.000000000000014    -0.000281887502591
1 44
    -0.123016671665451    -0.081713568193159    -0.000000000000000
     0.066437567708282    -0.205911818978159    -0.000000000000000
    -0.000000000000000     0.000000000000014     0.000864455007947
1 45
    -0.295076899976345    -0.000000000000000    -0.000000000000000
     0.000000000000000    -0.553811189234402    -0.000000000000000
     0.000000000000000     0.000000000000028     0.040845499125477
1 46
    -0.164630356747769     0.075724953991873    -0.000000000000000
    -0.100796902477022    -0.171025950310508     0.000000000000000
     0.000000000000000     0.000000000000014    -0.001649041890159
1 47
     0.169544120541376    -0.000000000000000    -0.000000000000000
    -0.000000000000000     0.028461173981704    -0.000000000000000
    -0.000000000000000     0.000000000000014     0.000249000627289
1 48
    -0.164630356747769    -0.075724953991873    -0.000000000000000
     0.100796902477022    -0.171025950310487     0.000000000000000
    -0.000000000000000     0.000000000000028    -0.001649041890159
1 49
     0.276116402763747     0.670434328728071    -0.000000000000000
    -0.393574278256577     0.313010231191704     0.000000000000000
     0.000000000000000    -0.000000000000028    -0.205329205950011
1 50
     0.276116402763747    -0.670434328728071    -0.000000000000000
     0.393574278256576     0.313010231191718     0.000000000000000
    -0.000000000000000    -0.000000000000014    -0.205329205950011
1 51
    -0.067369288523687    -0.623328506616691    -0.000000000000000
     0.418857716595691     0.190562211185544    -0.000000000000000
    -0.000000000000000    -0.000000000000014     0.001045332822109
1 52
    -0.067369288523687     0.623328506616691    -0.000000000000000
    -0.418857716595691     0.190562211185537    -0.000000000000000
     0.000000000000000    -0.000000000000014     0.001045332822109
1 53
    -0.076582453948010    -0.084839504087466    -0.000000000000000
     0.670925736982812    -0.033422911126550     0.000000000000000
    -0.000000000000000    -0.000000000000014    -0.025351082733043
1 54
    -0.076582453948010     0.084839504087466    -0.000000000000000
    -0.670925736982812    -0.033422911126543     0.000000000000000
     0.000000000000000    -0.000000000000028    -0.025351082733043
1 55
    -0.024020200357630     0.024912272354303    -0.000000000000000
    -0.500080748633444     0.069882930829522    -0.000000000000000
     0.000000000000000    -0.000000000000043     0.000199670314335
1 56
    -0.024020200357630    -0.024912272354303    -0.000000000000000
     0.500080748633444     0.069882930829522    -0.000000000000000
    -0.000000000000000    -0.000000000000014     0.000199670314335
1 57
     0.107914640878099    -0.170798065454104    -0.000000000000000
     0.127831093283373    -0.216765721182405     0.000000000000000
    -0.000000000000000    -0.000000000000014    -0.011263754791043
1 58
     0.107914640878099     0.170798065454104    -0.000000000000000
    -0.127831093283373    -0.216765721182398     0.000000000000000
     0.000000000000000    -0.000000000000028    -0.011263754791043
1 59
     0.016874556308057     0.133063249968497    -0.000000000000000
    -0.003605067502585     0.102352521263285     0.000000000000000
    -0.000000000000000    -0.000000000000014    -0.000281887502591
1 60
     0.016874556308057    -0.133063249968497    -0.000000000000000
     0.003605067502585     0.102352521263292     0.000000000000000
    -0.000000000000000    -0.000000000000014    -0.000281887502591
1 61
     0.226628793761639    -0.354643108925590    -0.000000000000000
    -0.075982221025150    -0.220821013323210     0.000000000000000
    -0.000000000000000    -0.000000000000014    -0.056513746144509
1 62
     0.226628793761639     0.354643108925590    -0.000000000000000
     0.075982221025150    -0.220821013323217     0.000000000000000
    -0.000000000000000    -0.000000000000014    -0.056513746144509
1 63
    -0.005478251537371     0.350441755868847    -0.000000000000000
     0.113667004362573     0.118054241787483    -0.000000000000000
    -0.000000000000000    -0.000000000000028     0.000498001254578
1 64
    -0.005478251537371    -0.350441755868847    -0.000000000000000
    -0.113667004362573     0.118054241787483    -0.000000000000000
     0.000000000000000    -0.000000000000028     0.000498001254578
1 65
    -0.860600104691851    -0.301726633608453    -0.000000000000000
     0.324257671154786     0.307098988817110    -0.000000000000000
    -0.000000000000000     0.000000000000014     0.531574056136552
1 66
     0.331661770048205     0.532818904504644    -0.000000000000000
    -0.237247126758035     0.311633394101946     0.000000000000000
     0.000000000000014     0.000000000000028    -0.084817600467195
1 67
    -0.012349302904360     0.001656907549087    -0.000000000000000
    -0.219973980529289     0.273424257130216    -0.000000000000000
     0.000000000000007     0.000000000000014     0.001423531888086
1 68
     0.202090012796035    -0.072376850230544    -0.000000000000000
     0.111485649638443    -0.380071354573246     0.000000000000000
     0.000000000000014     0.000000000000014    -0.008181784762712
1 69
    -0.180315578186057    -0.035078435912293    -0.000000000000000
    -0.664906026444783     0.387543666395580     0.000000000000000
     0.000000000000007     0.000000000000028    -0.080105381048877
1 70
    -0.095466439267627    -0.185855322615193    -0.000000000000000
     0.078421937103407    -0.640949824175941    -0.000000000000000
     0.000000000000014     0.000000000000014     0.022605028645299
1 71
     0.163336455624261     0.020684848578465    -0.000000000000000
     0.027504037825889    -0.457961307116236     0.000000000000000
     0.000000000000007     0.000000000000028    -0.000641294068395
1 72
    -0.098038655758662    -0.041353828023563    -0.000000000000000
    -0.111031609537211     0.453892933387905    -0.000000000000000
     0.000000000000014     0.000000000000028     0.001289635324355
1 73
    -0.050051813368491     0.109226111399252    -0.000000000000000
    -0.091167763907212     0.108259948174840    -0.000000000000000
     0.000000000000007     0.000000000000014     0.012830579492946
1 74
    -0.096267830502249     0.001348876335502    -0.000000000000000
     0.035293033080180    -0.088979868389323    -0.000000000000000
     0.000000000000014     0.000000000000014     0.005026993796211
1 75
    -0.018732378420562     0.006196613199240    -0.000000000000000
    -0.027095238214923    -0.012445495356303     0.000000000000000
     0.000000000000007     0.000000000000028     0.000016443437651
1 76
    -0.017885080050156     0.018955396419731    -0.000000000000000
    -0.044489389128515    -0.008066433923617     0.000000000000000
     0.000000000000007     0.000000000000014    -0.000328868753023
1 77
    -0.101290694587700     0.223464885298224    -0.000000000000000
     0.022442008509817    -0.026222587312049    -0.000000000000000
     0.000000000000007     0.000000000000028     0.005658891614520
1 78
    -0.159536931694349     0.071105335920166    -0.000000000000000
    -0.001166441556624     0.092248630078622    -0.000000000000000
     0.000000000000007     0.000000000000028     0.028771317764483
1 79
    -0.004621318335992    -0.037227286595510    -0.000000000000000
    -0.040671745828224     0.085428217369255     0.000000000000000
     0.000000000000007     0.000000000000014    -0.000887945633163
1 80
    -0.027759931660064     0.025263376929864    -0.000000000000000
     0.005317120273318    -0.128137965524672    -0.000000000000000
     0.000000000000014    -0.000000000000000     0.000697671568913
1 81
     0.331661770048205    -0.532818904504644    -0.000000000000000
     0.237247126758028     0.311633394101953     0.000000000000000
    -0.000000000000014     0.000000000000028    -0.084817600467195
1 82
    -0.860600104691851     0.301726633608453    -0.000000000000000
    -0.324257671154790     0.307098988817110    -0.000000000000000
    -0.000000000000007     0.000000000000028     0.531574056136552
1 83
     0.202090012796035     0.072376850230544    -0.000000000000000
    -0.111485649638446    -0.380071354573246     0.000000000000000
    -0.000000000000014     0.000000000000028    -0.008181784762712
1 84
    -0.012349302904360    -0.001656907549087    -0.000000000000000
     0.219973980529289     0.273424257130202    -0.000000000000000
    -0.000000000000007     0.000000000000014     0.001423531888086
1 85
    -0.095466439267627     0.185855322615193    -0.000000000000000
    -0.078421937103400    -0.640949824175934    -0.000000000000000
    -0.000000000000014     0.000000000000014     0.022605028645299
1 86
    -0.180315578186057     0.035078435912293    -0.000000000000000
     0.664906026444772     0.387543666395580     0.000000000000000
    -0.000000000000014     0.000000000000014    -0.080105381048877
1 87
    -0.098038655758662     0.041353828023563    -0.000000000000000
     0.111031609537207     0.453892933387912    -0.000000000000000
    -0.000000000000007     0.000000000000014     0.001289635324355
1 88
     0.163336455624261    -0.020684848578465    -0.000000000000000
    -0.027504037825885    -0.457961307116250     0.000000000000000
    -0.000000000000000     0.000000000000028    -0.000641294068395
1 89
    -0.096267830502249    -0.001348876335502    -0.000000000000000
    -0.035293033080194    -0.088979868389323    -0.000000000000000
    -0.000000000000007     0.000000000000028     0.005026993796211
1 90
    -0.050051813368491    -0.109226111399252    -0.000000000000000
     0.091167763907222     0.108259948174847    -0.000000000000000
    -0.000000000000000     0.000000000000014     0.012830579492946
1 91
    -0.017885080050156    -0.018955396419731    -0.000000000000000
     0.044489389128511    -0.008066433923617     0.000000000000000
    -0.000000000000007    -0.000000000000000    -0.000328868753023
1 92
    -0.018732378420562    -0.006196613199240    -0.000000000000000
     0.027095238214923    -0.012445495356310    -0.000000000000000
    -0.000000000000007     0.000000000000014     0.000016443437651
1 93
    -0.159536931694349    -0.071105335920166    -0.000000000000000
     0.001166441556624     0.092248630078622    -0.000000000000000
    -0.000000000000007     0.000000000000028     0.028771317764483
1 94
    -0.101290694587700    -0.223464885298224    -0.000000000000000
    -0.022442008509824    -0.026222587312027    -0.000000000000000
    -0.000000000000014     0.000000000000014     0.005658891614520
1 95
    -0.027759931660064    -0.025263376929864    -0.000000000000000
    -0.005317120273311    -0.128137965524679    -0.000000000000000
    -0.000000000000014     0.000000000000014     0.000697671568913
1 96
    -0.004621318335992     0.037227286595510    -0.000000000000000
     0.040671745828220     0.085428217369262     0.000000000000000
    -0.000000000000014     0.000000000000014    -0.000887945633163
1 97
    -9.373968202779452    -5.057395036260296    -0.000000000000000
    -6.796868577119920    -9.150428229630734     0.000000000000000
    -0.000000000000000    -0.000000000000014    -5.055572490848899
1 98
    -0.358191277118198     0.517481387113339    -0.000000000000000
     0.196861540657494     0.005128527386134     0.000000000000000
    -0.000000000000000    -0.000000000000000    -0.032825799676755
1 99
     0.049487042247346    -0.512355373661062    -0.000000000000000
     0.224754210646871     0.074625006316730     0.000000000000000
    -0.000000000000014    -0.000000000000014    -0.000122151251123
1 100
    -0.251604259271991     0.305930537061638    -0.000000000000000
    -0.139700998787418     0.030387982814737    -0.000000000000000
    -0.000000000000007    -0.000000000000028     0.002006099393441
1 101
     0.866612522593178     1.110815248040190    -0.000000000000000
     1.154813660492753    -1.620134450738718    -0.000000000000000
    -0.000000000000014    -0.000000000000014     0.724634108536278
1 102
     0.107199112990044    -0.208906372328411    -0.000000000000000
    -0.033488319064304     0.119935265064072     0.000000000000000
    -0.000000000000007    -0.000000000000028    -0.004442077228334
1 103
    -0.147414330695117     0.216937287317503    -0.000000000000000
     0.005891619993264     0.082136017835573     0.000000000000000
    -0.000000000000014    -0.000000000000028    -0.000126849376166
1 104
     0.096800296601915    -0.114101902623748    -0.000000000000000
     0.100197874780417    -0.059089530967675    -0.000000000000000
    -0.000000000000007    -0.000000000000014     0.001052380009674
1 105
     0.063906983677651    -0.211343134431136    -0.000000000000000
     0.057005743084044    -0.309714761261155     0.000000000000000
    -0.000000000000007    -0.000000000000028    -0.038907522545162
1 106
     0.055577672305938    -0.118358514269875    -0.000000000000000
     0.017111806648948    -0.028492242752129    -0.000000000000000
    -0.000000000000007    -0.000000000000000     0.000326519690502
1 107
    -0.003639132332037     0.113664651324243    -0.000000000000000
     0.036375534450031     0.019794077163041     0.000000000000000
    -0.000000000000007    -0.000000000000014    -0.000098660625907
1 108
     0.058216199104223    -0.070691038188546    -0.000000000000000
     0.050565241479781     0.091808216631094     0.000000000000000
    -0.000000000000014    -0.000000000000014    -0.001327220324701
1 109
     0.146771064039319    -0.246613700208023    -0.000000000000000
     0.029609628355448     0.162561618098863     0.000000000000000
    -0.000000000000014    -0.000000000000014    -0.122346223312181
1 110
     0.109330394275609    -0.136704365942197    -0.000000000000000
     0.078924488091829    -0.035066830628779    -0.000000000000000
    -0.000000000000007    -0.000000000000014     0.000709416881521
1 111
    -0.015862899056431     0.151611433091144    -0.000000000000000
     0.027059263849157     0.015525664158403     0.000000000000000
    -0.000000000000014    -0.000000000000014    -0.000234906252159
1 112
     0.055308463793601    -0.101326400137758    -0.000000000000000
     0.007072778335893     0.078942475274701    -0.000000000000000
    -0.000000000000007    -0.000000000000028     0.001186276573405
1 113
    -9.373968202779452     5.057395036260296    -0.000000000000000
     6.796868577119923    -9.150428229630734     0.000000000000000
     0.000000000000007    -0.000000000000014    -5.055572490848898
1 114
    -0.251604259271991    -0.305930537061638    -0.000000000000000
     0.139700998787426     0.030387982814737    -0.000000000000000
     0.000000000000007    -0.000000000000014     0.002006099393441
1 115
     0.049487042247346     0.512355373661062    -0.000000000000000
    -0.224754210646875     0.074625006316737     0.000000000000000
     0.000000000000014    -0.000000000000014    -0.000122151251123
1 116
    -0.358191277118198    -0.517481387113339    -0.000000000000000
    -0.196861540657498     0.005128527386127     0.000000000000000
     0.000000000000014    -0.000000000000028    -0.032825799676755
1 117
     0.866612522593178    -1.110815248040190    -0.000000000000000
    -1.154813660492756    -1.620134450738728    -0.000000000000000
     0.000000000000014    -0.000000000000028     0.724634108536278
1 118
     0.096800296601915     0.114101902623748    -0.000000000000000
    -0.100197874780420    -0.059089530967690    -0.000000000000000
     0.000000000000014    -0.000000000000014     0.001052380009674
1 119
    -0.147414330695117    -0.216937287317503    -0.000000000000000
    -0.005891619993267     0.082136017835595     0.000000000000000
     0.000000000000014    -0.000000000000000    -0.000126849376166
1 120
     0.107199112990044     0.208906372328411    -0.000000000000000
     0.033488319064297     0.119935265064072     0.000000000000000
     0.000000000000014    -0.000000000000000    -0.004442077228334
1 121
     0.063906983677651     0.211343134431136    -0.000000000000000
    -0.057005743084044    -0.309714761261162     0.000000000000000
     0.000000000000007    -0.000000000000028    -0.038907522545162
1 122
     0.058216199104223     0.070691038188546    -0.000000000000000
    -0.050565241479784     0.091808216631080     0.000000000000000
     0.000000000000007    -0.000000000000000    -0.001327220324701
1 123
    -0.003639132332037    -0.113664651324243    -0.000000000000000
    -0.036375534450027     0.019794077163048    -0.000000000000000
     0.000000000000014    -0.000000000000014    -0.000098660625907
1 124
     0.055577672305938     0.118358514269875    -0.000000000000000
    -0.017111806648948    -0.028492242752129    -0.000000000000000
     0.000000000000007    -0.000000000000014     0.000326519690502
1 125
     0.146771064039319     0.246613700208023    -0.000000000000000
    -0.029609628355455     0.162561618098849     0.000000000000000
     0.000000000000014    -0.000000000000028    -0.122346223312181
1 126
     0.055308463793601     0.101326400137758    -0.000000000000000
    -0.007072778335889     0.078942475274715    -0.000000000000000
     0.000000000000007    -0.000000000000014     0.001186276573405
1 127
    -0.015862899056431    -0.151611433091144    -0.000000000000000
    -0.027059263849154     0.015525664158382     0.000000000000000
     0.000000000000007    -0.000000000000014    -0.000234906252159
1 128
     0.109330394275609     0.136704365942197    -0.000000000000000
    -0.078924488091829    -0.035066830628779    -0.000000000000000
     0.000000000000014    -0.000000000000028     0.000709416881521
2 1
    -0.314647792068495    -0.006308263887515     0.000000000000000
     0.011407689410584    -0.113666459296425    -0.000000000000000
     0.000000000000000     0.000000000000004     0.029445498708181
2 2
    24.346746315811458     0.000000000000000     0.000000000000000
    -0.000000000000007    42.225135293948377    -0.000000000000000
    -0.000000000000007    -0.000000000000014    11.501545691979207
2 3
    -0.314647792068495     0.006308263887515     0.000000000000000
    -0.011407689410584    -0.113666459296424    -0.000000000000000
     0.000000000000000     0.000000000000000     0.029445498708181
2 4
     0.546090884162867     0.000000000000000     0.000000000000000
    -0.000000000000000     0.595195881584166     0.000000000000000
    -0.000000000000000     0.000000000000007    -0.001691325015548
2 5
     0.120377294735021     0.047926766385316     0.000000000000000
     0.095220330717278     0.144615315177401     0.000000000000000
    -0.000000000000000     0.000000000000004    -0.002847063776172
2 6
     0.096926966291402     0.000000000000000     0.000000000000000
    -0.000000000000000    -0.968748245027854    -0.000000000000000
    -0.000000000000000     0.000000000000000     0.545062373135545
2 7
     0.120377294735021    -0.047926766385316     0.000000000000000
    -0.095220330717278     0.144615315177400     0.000000000000000
     0.000000000000000     0.000000000000004    -0.002847063776172
2 8
    -0.197451125062392     0.000000000000000     0.000000000000000
     0.000000000000000    -0.037533254948287     0.000000000000000
     0.000000000000000     0.000000000000004    -0.000230208127116
2 9
     0.057116694864362     0.043168293396720     0.000000000000000
    -0.039962614769734     0.133074084560566     0.000000000000000
     0.000000000000000     0.000000000000004    -0.000368802815890
2 10
     0.134790151730791     0.000000000000000     0.000000000000000
    -0.000000000000000     0.626984139332996    -0.000000000000000
     0.000000000000000     0.000000000000007     0.051721658600457
2 11
     0.057116694864362    -0.043168293396720     0.000000000000000
     0.039962614769734     0.133074084560564     0.000000000000000
    -0.000000000000000     0.000000000000000    -0.000368802815890
2 12
    -0.098306447384094     0.000000000000000     0.000000000000000
     0.000000000000000    -0.037221477111664     0.000000000000000
     0.000000000000000     0.000000000000004    -0.000093962500864
2 13
     0.120561773410318    -0.093810665228063     0.000000000000000
    -0.040527848365165     0.145850435068672     0.000000000000000
     0.000000000000000     0.000000000000004    -0.002886997839039
2 14
     0.099721634026843     0.000000000000000     0.000000000000000
    -0.000000000000000    -0.978137554492548    -0.000000000000000
    -0.000000000000000     0.000000000000007     0.545024788135200
2 15
     0.120561773410318     0.093810665228063     0.000000000000000
     0.040527848365165     0.145850435068668     0.000000000000000
    -0.000000000000000     0.000000000000007    -0.002886997839039
2 16
    -0.199858699294830     0.000000000000000     0.000000000000000
     0.000000000000000    -0.026462961483293     0.000000000000000
     0.000000000000000     0.000000000000004    -0.000277189377548
2 17
     0.000779571176252     0.288429433363286     0.000000000000000
     0.288596718424728    -0.091185206023953     0.000000000000000
    -0.000000000000000    -0.000000000000004    -0.001505749076342
2 18
    -0.436071032718292     0.317047715111635     0.000000000000000