 128  128
1 1
    46.247380574096972    -0.359481126202692    -0.000000000000000
    -0.372181133463206    17.111460790155199    -0.000000000000007
    -0.000000000000042    -0.000000000000002     8.542148322143108
1 2
     0.174619256146078     0.091477807155936     0.000000000000000
     0.116211160611975     0.300225168471163     0.000000000000000
     0.000000000000021     0.000000000000004    -0.058026829487670
1 3
     0.267485520138324    -0.174055498754651    -0.000000000000000
    -0.192423804896990    -0.193909709929295    -0.000000000000000
     0.000000000000025     0.000000000000005     0.000317476503686
1 4
     0.170571335093687     0.111140888781182     0.000000000000000
     0.094154233699099     0.299954898354021     0.000000000000000
     0.000000000000025     0.000000000000004    -0.057975147266139
1 5
    -0.099136533022437    -0.114323258403800     0.000000000000000
     0.274034253016186     0.247239679495384     0.000000000000000
     0.000000000000021     0.000000000000004    -0.038350669433640
1 6
    -0.072670063964242    -0.049693375714932     0.000000000000000
    -0.162256826371443    -0.223808255796415     0.000000000000000
     0.000000000000025     0.000000000000005    -0.001429874795671
1 7
     0.213956653692410     0.147823417959739     0.000000000000000
     0.013302595907094     0.055658672906441     0.000000000000000
     0.000000000000021     0.000000000000004    -0.001260061782072
1 8
    -0.032567713000917    -0.055728235182213     0.000000000000000
    -0.147910348536572    -0.198736740068693     0.000000000000000
     0.000000000000025     0.000000000000004    -0.017992796267044
1 9
    -0.038417717236589    -0.142680153062594    -0.000000000000000
    -0.118116377666231    -0.078526395284526    -0.000000000000000
     0.000000000000025     0.000000000000004     0.000698940519743
1 10
     0.171450163418548     0.095491004021173     0.000000000000000
     0.104093780843233     0.074663241187406     0.000000000000000
     0.000000000000021     0.000000000000004    -0.000233800525970
1 11
    -0.059375806782722    -0.142279292960901    -0.000000000000000
    -0.100518659094815    -0.156438504526906    -0.000000000000000
     0.000000000000025     0.000000000000004     0.001867943149595
1 12
     0.168810103895289     0.076171079068970     0.000000000000000
     0.112981197437438     0.074991445946663     0.000000000000000
     0.000000000000021     0.000000000000003    -0.000265794282156
1 13
    -0.084562076764550     0.281222000056238     0.000000000000000
    -0.119499658228731     0.249751173688136     0.000000000000000
     0.000000000000025     0.000000000000003    -0.038390046364329
1 14
    -0.020164029089912    -0.151248856892429     0.000000000000000
    -0.087532935344193    -0.196433550425578     0.000000000000000
     0.000000000000025     0.000000000000004    -0.018005101557884
1 15
     0.227829477109882     0.017718527144673     0.000000000000000
     0.134415319052891     0.059213929694257     0.000000000000000
     0.000000000000025     0.000000000000004    -0.001269906014744
1 16
    -0.060460937631255    -0.163426833586941     0.000000000000000
    -0.083206067084109    -0.221624340503595     0.000000000000000
     0.000000000000025     0.000000000000004    -0.001383114690477
1 17
     0.561458445977102     0.185295411746218    -0.000000000000000
     0.007764721124871    -1.811688524273797    -0.000000000000000
    -0.000000000000004    -0.000000000000004     0.268885371214897
1 18
    -0.073039263777648     0.063611136315775    -0.000000000000000
     0.052089609209681    -0.282615729246293    -0.000000000000000
    -0.000000000000004    -0.000000000000005     0.012457876446967
1 19
     0.159358997191918     0.247852056202123    -0.000000000000000
     0.133493545081382     0.125510769122771    -0.000000000000000
    -0.000000000000004    -0.000000000000005     0.006775293136804
1 20
    -0.109239739534551    -0.208334399272479    -0.000000000000000
    -0.070756305252866    -0.139924286292047    -0.000000000000000
    -0.000000000000004    -0.000000000000004     0.003854017091258
1 21
    -0.057518573419842     0.062585240845325     0.000000000000000
    -0.080858188090685    -0.820789816616057     0.000000000000000
    -0.000000000000004    -0.000000000000004    -0.031186529106275
1 22
     0.085859637934492     0.026916862191563    -0.000000000000000
     0.127378356315320     0.083450845831218    -0.000000000000000
    -0.000000000000004    -0.000000000000005     0.007144451862020
1 23
    -0.109006372570889    -0.237972514307260    -0.000000000000000
    -0.025033324121988    -0.126240655720036    -0.000000000000000
    -0.000000000000004    -0.000000000000004     0.001518472889723
1 24
     0.052933448766201     0.202578865251855     0.000000000000000
     0.125724719865786     0.112395827483878     0.000000000000000
    -0.000000000000004    -0.000000000000005    -0.004840901416670
1 25
     0.052656165918787     0.072098646825649    -0.000000000000000
     0.084859123000395     0.284824187732385    -0.000000000000000
    -0.000000000000004    -0.000000000000005     0.002352771608712
1 26
    -0.050182067584130    -0.154643146186643     0.000000000000000
    -0.047236116570002    -0.083343782221502     0.000000000000000
    -0.000000000000004    -0.000000000000005    -0.000115669733901
1 27
     0.066017318225559     0.147515496123662    -0.000000000000000
     0.085927677129877     0.131248363051047    -0.000000000000000
    -0.000000000000004    -0.000000000000005     0.000765389090282
1 28
    -0.045216508821239    -0.167465052292919    -0.000000000000000
    -0.050984445303149    -0.110246882287938     0.000000000000000
    -0.000000000000004    -0.000000000000004    -0.001279750247417
1 29
    -0.083763420460030    -0.116291302775682     0.000000000000000
    -0.048405177582333     0.054705977107689     0.000000000000000
    -0.000000000000003    -0.000000000000004    -0.003034484721278
1 30
     0.088754511713475     0.142171545850764    -0.000000000000000
     0.086976207989556     0.155942212300669    -0.000000000000000
    -0.000000000000004    -0.000000000000005     0.001432335853839
1 31
    -0.060348084023007    -0.110112440061677     0.000000000000000
    -0.037975690210138    -0.109335319004474     0.000000000000000
    -0.000000000000004    -0.000000000000004    -0.001016417023429
1 32
     0.090997796333526     0.143985884629513    -0.000000000000000
     0.095280731629331     0.113302886668829     0.000000000000000
    -0.000000000000004    -0.000000000000005    -0.000728473217760
1 33
   -24.496360129126536    -0.221116985343303     0.000000000000000
     0.607669257032492    -3.996410149646170     0.000000000000003
     0.000000000000046     0.000000000000002    -3.889340659145279
1 34
    -1.051948313160462     0.174585042608735     0.000000000000000
    -0.289786687620708     0.048951584635142     0.000000000000000
     0.000000000000009    -0.000000000000000    -0.061068697383452
1 35
    -0.016813145029637    -0.128423320987197    -0.000000000000000
     0.358001808223156    -0.157759031895950    -0.000000000000000
     0.000000000000009     0.000000000000000     0.013518592517422
1 36
     0.764012800038024     0.327640578532747    -0.000000000000000
    -0.218830046597039     0.919179678967944    -0.000000000000000
     0.000000000000007    -0.000000000000001     0.410915499154625
1 37
     0.069636293436647    -0.008169375677574     0.000000000000000
    -0.239509469936149     0.294248647484526     0.000000000000000
     0.000000000000009    -0.000000000000000    -0.015293015456628
1 38
    -0.011341021654161    -0.162663412119383    -0.000000000000000
     0.211220869883896    -0.062270669093226    -0.000000000000000
     0.000000000000009     0.000000000000000     0.003972147883328
1 39
    -0.238164007986413     0.117892189933402     0.000000000000000
    -0.010770610712910     0.188313409272403     0.000000000000000
     0.000000000000011    -0.000000000000000    -0.005096851466153
1 40
     0.136325116163769     0.009252463926864    -0.000000000000000
     0.084360769468532    -0.143487220237344    -0.000000000000000
     0.000000000000011     0.000000000000000     0.010021428860539
1 41
     0.369606801306493    -0.118380371152789    -0.000000000000000
     0.228459237899290    -0.154790297472927     0.000000000000000
     0.000000000000009     0.000000000000000    -0.002369999015889
1 42
    -0.345192633839010     0.098014124737694    -0.000000000000000
    -0.199990322808341     0.076637224157535    -0.000000000000000
     0.000000000000011    -0.000000000000000     0.003076322710136
1 43
     0.321900874656266    -0.112685604459683     0.000000000000000
     0.219559892616509    -0.158093605736929     0.000000000000000
     0.000000000000009     0.000000000000000    -0.001456946435520
1 44
    -0.337753487391272     0.081139701730728    -0.000000000000000
    -0.209097089701809     0.080713541786238    -0.000000000000000
     0.000000000000009    -0.000000000000000     0.008370058829738
1 45
     0.025825603545295     0.265395430461597     0.000000000000000
    -0.051669575829838     0.233673129917603     0.000000000000000
     0.000000000000011    -0.000000000000001    -0.006088657907901
1 46
    -0.008530915743816    -0.066762866949728    -0.000000000000000
     0.119596230712308    -0.051036966761701    -0.000000000000000
     0.000000000000007     0.000000000000000     0.002436447586428
1 47
    -0.178736114922962     0.123266779194964     0.000000000000000
    -0.248821041161402     0.153315211233030     0.000000000000000
     0.000000000000009    -0.000000000000000    -0.006994327313765
1 48
     0.099309132658578    -0.107268631263802    -0.000000000000000
     0.157707381135359    -0.065346828812951    -0.000000000000000
     0.000000000000009     0.000000000000000     0.020382483748277
1 49
     0.238592443177903    -0.291472273713943     0.000000000000000
     0.107699283167154    -0.256342583483864     0.000000000000000
    -0.000000000000009     0.000000000000043    -0.013334013154814
1 50
    -0.154434801063724    -0.077821499258363     0.000000000000000
    -0.110369303089996     0.137862613855578     0.000000000000000
    -0.000000000000009     0.000000000000043    -0.008352831422561
1 51
     0.010474448924767     0.041008754377980    -0.000000000000000
     0.007239603564865    -0.114875668986986     0.000000000000000
    -0.000000000000007     0.000000000000043    -0.000307632271014
1 52
    -0.146303724121980     0.088380205401954     0.000000000000000
    -0.147906651846245     0.081424356299905     0.000000000000000
    -0.000000000000007     0.000000000000043    -0.004454515284277
1 53
    -5.705495445636660     6.043363829235425     0.000000000000000
     4.037527009359032    -5.016781147205055     0.000000000000003
    -0.000000000000001     0.000000000000044    -4.037976267208212
1 54
     0.789596866222683     0.886889953427136    -0.000000000000000
     0.064419221845028    -0.392438755814883    -0.000000000000000
    -0.000000000000011     0.000000000000043     0.190111821370070
1 55
    -0.259954967374407     0.276441296524954    -0.000000000000000
    -0.089700364168738     0.128564446791074    -0.000000000000000
    -0.000000000000009     0.000000000000043     0.018743419008317
1 56
    -0.092011946858320    -0.204945727126191     0.000000000000000
     0.116122998716325    -0.138477230949878     0.000000000000000
    -0.000000000000007     0.000000000000043    -0.032323537979941
1 57
    -0.016636970844816     0.008210227662460    -0.000000000000000
     0.171541028072321    -0.223181763148808    -0.000000000000000
    -0.000000000000009     0.000000000000043     0.012583390413540
1 58
    -0.025395125754560     0.115586606036398     0.000000000000000
    -0.136488477234313    -0.025847579665960     0.000000000000000
    -0.000000000000009     0.000000000000036    -0.004653860995894
1 59
     0.081780056593816    -0.041781878191951    -0.000000000000000
     0.063354526000045    -0.141025789276956    -0.000000000000000
    -0.000000000000009     0.000000000000043     0.005256820247080
1 60
    -0.062673583262641     0.071252500088690    -0.000000000000000
    -0.135095452805850    -0.011203634735278     0.000000000000000
    -0.000000000000009     0.000000000000043    -0.000524205389807
1 61
    -0.052404415561927     0.128893118813387    -0.000000000000000
    -0.045512609470594    -0.047278135208565     0.000000000000000
    -0.000000000000009     0.000000000000043    -0.001582460402094
1 62
     0.078389852498091    -0.043468043868121     0.000000000000000
     0.045124883611196    -0.088128733416539     0.000000000000000
    -0.000000000000007     0.000000000000043    -0.003278129479921
1 63
    -0.080060698679927     0.150284239399312    -0.000000000000000
    -0.089268149040941     0.103976071351841    -0.000000000000000
    -0.000000000000007     0.000000000000035     0.002611182716363
1 64
     0.029794373876968    -0.065138489900704     0.000000000000000
     0.063990072382015    -0.039217066472368     0.000000000000000
    -0.000000000000009     0.000000000000036    -0.000861370358838
1 65
     0.063727564472699     0.184271558875013     0.000000000000000
     0.050294791223849     0.129343370883344     0.000000000000000
     0.000000000000005    -0.000000000000021    -0.033431014155590
1 66
    -0.093023544134061     0.051297326771518    -0.000000000000000
    -0.055788038345384    -0.272687784768978    -0.000000000000000
     0.000000000000006    -0.000000000000028     0.007233049956072
1 67
     0.010397340803294     0.005005389448154     0.000000000000000
    -0.012667277295901     0.176697940132103     0.000000000000000
     0.000000000000005    -0.000000000000028    -0.002667787054230
1 68
    -0.019752445342184    -0.185674824555845    -0.000000000000000
    -0.047370755884040    -0.239547448974905     0.000000000000000
     0.000000000000006    -0.000000000000028    -0.005197754851046
1 69
     0.562848434762847     0.568858783039200    -0.000000000000000
     0.215511321709100    -4.325421507433155    -0.000000000000000
     0.000000000000005    -0.000000000000020     0.244860521377819
1 70
     0.016850933115656     0.085583887036515     0.000000000000000
    -0.071475672623778     0.262524254579393     0.000000000000000
     0.000000000000006    -0.000000000000029    -0.004001680581345
1 71
     0.061485811802081    -0.544415508532479     0.000000000000000
    -0.070470031391624    -0.293346103288425     0.000000000000000
     0.000000000000006    -0.000000000000028    -0.006374140655402
1 72
     0.001460458459674     0.394230845846334    -0.000000000000000
    -0.011821233470741     0.277925118489820    -0.000000000000000
     0.000000000000006    -0.000000000000029     0.009452924423706
1 73
     0.002301498698514     0.019211667192256     0.000000000000000
     0.015960254981755     0.263656566370123     0.000000000000000
     0.000000000000005    -0.000000000000029    -0.009822083148922
1 74
    -0.009680388468545    -0.143948607193302     0.000000000000000
    -0.063112437007428    -0.081816998965898     0.000000000000000
     0.000000000000007    -0.000000000000028    -0.000179657246272
1 75
     0.013701245080947     0.096602688659885     0.000000000000000
     0.005459717380401     0.172044809175167     0.000000000000000
     0.000000000000006    -0.000000000000028    -0.004432365760764
1 76
    -0.012608965135059    -0.150082532723932     0.000000000000000
    -0.066327238645152    -0.075257983165136     0.000000000000000
     0.000000000000006    -0.000000000000021    -0.000263333223988
1 77
    -0.014584669254107    -0.325331420087066    -0.000000000000000
    -0.044802724036626    -0.029421831784651    -0.000000000000000
     0.000000000000005    -0.000000000000021     0.004065668093716
1 78
     0.020999452180828     0.239618849298166     0.000000000000000
     0.002328791402456     0.220983043958531     0.000000000000000
     0.000000000000005    -0.000000000000028    -0.000024610581681
1 79
    -0.014790461127970    -0.325294653300666     0.000000000000000
    -0.034917797725619    -0.216055083319880     0.000000000000000
     0.000000000000005    -0.000000000000028    -0.000630030891036
1 80
     0.001755103400663     0.266827292531852     0.000000000000000
     0.004126292027410     0.163332087833934     0.000000000000000
     0.000000000000005    -0.000000000000028    -0.002465980284445
1 81
    -4.346155861551809    -0.061545047180166    -0.000000000000000
    -0.044134635184226     1.535311313323941    -0.000000000000000
    -0.000000000000007    -0.000000000000013     0.217872557506338
1 82
     0.288447694882948     0.158252929701131    -0.000000000000000
    -0.046024080445229     0.083470864005750    -0.000000000000000
    -0.000000000000014    -0.000000000000011     0.011921365766319
1 83
     0.351391922545457    -0.052017853654944    -0.000000000000000
    -0.011636289536801    -0.053201440963891    -0.000000000000000
    -0.000000000000018    -0.000000000000012     0.006836819591006
1 84
    -9.305184945308786     0.188556421439742    -0.000000000000000
    -0.178817540242393     0.360610555928185    -0.000000000000001
    -0.000000000000000    -0.000000000000011     1.706116269750599
1 85
    -0.097630116079765     0.075245781611303    -0.000000000000000
    -0.023676870422883     0.166546796303384    -0.000000000000000
    -0.000000000000018    -0.000000000000012     0.005662894844818
1 86
     0.182995955646950    -0.144433724513825     0.000000000000000
    -0.051796418625388     0.024044952974420     0.000000000000000
    -0.000000000000018    -0.000000000000011    -0.001380653632309
1 87
     0.052340073685731     0.030118125857191    -0.000000000000000
    -0.113138202904397     0.244674877256966    -0.000000000000000
    -0.000000000000018    -0.000000000000013     0.014783576415830
1 88
    -0.106554742827919     0.018965533983318    -0.000000000000000
     0.056545356368411    -0.142979817914028    -0.000000000000000
    -0.000000000000014    -0.000000000000012     0.038943784452154
1 89
    -0.097452920595322    -0.066572394570197    -0.000000000000000
     0.034691037439804    -0.028823111102882     0.000000000000000
    -0.000000000000014    -0.000000000000011    -0.001036105488774
1 90
    -0.068179920175460     0.071629870299082     0.000000000000000
    -0.061995022344737     0.112029199436514     0.000000000000000
    -0.000000000000018    -0.000000000000012    -0.005219904374559
1 91
    -0.006973944469848    -0.040190182730828    -0.000000000000000
     0.025942243108545    -0.078690991930123    -0.000000000000000
    -0.000000000000014    -0.000000000000011     0.000758005915778
1 92
    -0.154463908102955     0.046300107720341    -0.000000000000000
    -0.061469804387062     0.153428847665268     0.000000000000000
    -0.000000000000018    -0.000000000000011    -0.009475073947219
1 93
    -0.051829423874658     0.184937956878465    -0.000000000000000
    -0.067096499696427     0.068852016437905    -0.000000000000000
    -0.000000000000014    -0.000000000000012     0.025476874156263
1 94
     0.049872613798620    -0.073941071344006    -0.000000000000000
     0.115271496230570     0.025603019812849    -0.000000000000000
    -0.000000000000018    -0.000000000000012     0.007041087418959
1 95
    -0.007429954751138     0.185023746046727    -0.000000000000000
     0.022783607381166     0.171302445568252     0.000000000000000
    -0.000000000000014    -0.000000000000011    -0.005680122251995
1 96
     0.036800999934727    -0.059099545234928    -0.000000000000000
     0.207223031591990     0.041738919085898    -0.000000000000000
    -0.000000000000014    -0.000000000000011     0.025390737120379
1 97
    -4.620691923631647    -6.369552119705475     0.000000000000000
    -4.145815762522218    -6.287710595238725     0.000000000000003
    -0.000000000000002    -0.000000000000005    -3.934909612185982
1 98
     0.545257059421133    -0.866507876867900    -0.000000000000000
    -0.099549967318787    -0.153773138719021    -0.000000000000000
    -0.000000000000014    -0.000000000000021     0.204710818423292
1 99
     0.092362763278528    -0.239659190633239     0.000000000000000
     0.165092717307642     0.025462115837264     0.000000000000000
    -0.000000000000011    -0.000000000000018    -0.011623577727978
1 100
    -0.253569802136727     0.092693664356107     0.000000000000000
    -0.143191838197032    -0.055831136678629     0.000000000000000
    -0.000000000000014    -0.000000000000025    -0.008274077561182
1 101
     0.145429491645420     0.108337931968194    -0.000000000000000
    -0.197541228816468     0.176910124109728    -0.000000000000000
    -0.000000000000014    -0.000000000000018     0.003142771280675
1 102
     0.043582429425800    -0.011084675449000     0.000000000000000
     0.181238053469950    -0.063023855787423     0.000000000000000
    -0.000000000000014    -0.000000000000021    -0.000445451528428
1 103
    -0.157109584774135     0.138100134907065     0.000000000000000
    -0.034559102809081    -0.023902265203917     0.000000000000000
    -0.000000000000011    -0.000000000000021    -0.005980371348504
1 104
     0.000834401791297    -0.124586298306779     0.000000000000000
     0.205818392568186    -0.104348344481229     0.000000000000000
    -0.000000000000011    -0.000000000000018    -0.003531618471236
1 105
     0.151288687577694     0.066658183738458     0.000000000000000
     0.108911194087564    -0.167290290318789     0.000000000000000
    -0.000000000000014    -0.000000000000018    -0.006430744993268
1 106
    -0.094620856743100     0.040370952763951    -0.000000000000000
    -0.087067129571771     0.059425629520426    -0.000000000000000
    -0.000000000000014    -0.000000000000021     0.000888441998687
1 107
     0.133062574520813    -0.034115492578282     0.000000000000000
     0.140631673874402    -0.012952708213218     0.000000000000000
    -0.000000000000011    -0.000000000000021    -0.004242864281820
1 108
    -0.102512438923450     0.055044475085186    -0.000000000000000
    -0.109628488534472     0.101041074039044    -0.000000000000000
    -0.000000000000014    -0.000000000000025     0.001417569504831
1 109
    -0.151736527462004    -0.030319321882752    -0.000000000000000
    -0.165662754204910    -0.200388487656809    -0.000000000000000
    -0.000000000000014    -0.000000000000021     0.003898316138284
1 110
     0.150238280916313    -0.184180663208641     0.000000000000000
     0.140964572981987    -0.104611200019356     0.000000000000000
    -0.000000000000014    -0.000000000000021    -0.006374140655402
1 111
    -0.067910807725024     0.020135943350303     0.000000000000000
    -0.081699850047982    -0.040440257567226     0.000000000000000
    -0.000000000000014    -0.000000000000021    -0.001885170556771
1 112
     0.122964474506808    -0.127987736698350    -0.000000000000000
     0.153084726723809    -0.065181493232847    -0.000000000000000
    -0.000000000000014    -0.000000000000018     0.010250307270173
1 113
    -0.469960723478533     0.229109676186244    -0.000000000000000
    -0.280561972581578     0.320642752039575    -0.000000000000000
     0.000000000000002     0.000000000000018     0.132527982352660
1 114
     0.079568432262050    -0.159434062714148     0.000000000000000
     0.004057436532705     0.205818204257563     0.000000000000000
     0.000000000000001     0.000000000000018    -0.000853987184334
1 115
    -0.053953727088728    -0.005662595755009    -0.000000000000000
    -0.049303752838495    -0.088753100143526     0.000000000000000
     0.000000000000001     0.000000000000014    -0.000745700624937
1 116
     0.056034625068858     0.131702203424107    -0.000000000000000
     0.048989700215042     0.142561386248321     0.000000000000000
     0.000000000000001     0.000000000000014    -0.000307632271014
1 117
    -0.325236949872018    -0.887530308290229    -0.000000000000000
     0.310387225685197     2.090961592663864    -0.000000000000000
     0.000000000000001     0.000000000000021     0.219516544362634
1 118
    -0.027169633848045     0.063827141185858    -0.000000000000000
    -0.023306950182229    -0.117786337781373     0.000000000000000
     0.000000000000001     0.000000000000018    -0.000612803483859
1 119
     0.026750390353152     0.298459495078880    -0.000000000000000
     0.044982188203920     0.166540452163234     0.000000000000000
     0.000000000000001     0.000000000000014    -0.000056604337867
1 120
    -0.008307251126565    -0.231438239324747    -0.000000000000000
    -0.053659911604187    -0.149460864386608     0.000000000000000
     0.000000000000001     0.000000000000014    -0.000214112060625
1 121
    -0.020121134505780     0.029496665037113    -0.000000000000000
    -0.041535543703037    -0.216306564449905    -0.000000000000000
     0.000000000000001     0.000000000000014     0.002163270129768
1 122
     0.020927961207278     0.083322219023261     0.000000000000000
     0.040982167672066     0.031674821699140     0.000000000000000
     0.000000000000001     0.000000000000014    -0.000981962209075
1 123
    -0.030472516826077    -0.044627729589068    -0.000000000000000
    -0.040299078353742    -0.099755177192979     0.000000000000000
     0.000000000000001     0.000000000000021    -0.000231339467802
1 124
     0.021927813537362     0.080301725390752    -0.000000000000000
     0.042819245551380     0.044523098438615     0.000000000000000
     0.000000000000001     0.000000000000018    -0.000487289517286
1 125
     0.043703453431024     0.153312392778982    -0.000000000000000
     0.043388546495847    -0.080743729440076     0.000000000000000
     0.000000000000001     0.000000000000018    -0.001973768650823
1 126
    -0.042382913019585    -0.127097163427838    -0.000000000000000
    -0.035220197607897    -0.130018156331852     0.000000000000000
     0.000000000000001     0.000000000000021    -0.001004111732588
1 127
     0.035299689490166     0.170814404403759     0.000000000000000
     0.032544149691955     0.114097696390216     0.000000000000000
     0.000000000000001     0.000000000000014    -0.000893364115024
1 128
    -0.034059321099066    -0.141217652003679    -0.000000000000000
    -0.037452701844614    -0.077998363060910     0.000000000000000
     0.000000000000001     0.000000000000018    -0.000652180414549
2 1
     0.170571335093687     0.111140888781182     0.000000000000000
     0.094154233699099     0.299954898354021     0.000000000000000
     0.000000000000025     0.000000000000004    -0.057975147266139
2 2
    46.247380574096972    -0.359481126202692    -0.000000000000000
    -0.372181133463206    17.111460790155196    -0.000000000000007
    -0.000000000000042    -0.000000000000002     8.542148322143108
2 3
     0.174619256146078     0.091477807155936     0.000000000000000
     0.116211160611975     0.300225168471162     0.000000000000000
     0.000000000000021     0.000000000000004    -0.058026829487670
2 4
     0.267485520138324    -0.174055498754651    -0.000000000000000
    -0.192423804896990    -0.193909709929295    -0.000000000000000
     0.000000000000025     0.000000000000005     0.000317476503686
2 5
    -0.032567713000917    -0.055728235182213     0.000000000000000
    -0.147910348536572    -0.198736740068693     0.000000000000000
     0.000000000000025     0.000000000000004    -0.017992796267044
2 6
    -0.099136533022437    -0.114323258403800     0.000000000000000
     0.274034253016186     0.247239679495384     0.000000000000000
     0.000000000000021     0.000000000000004    -0.038350669433640
2 7
    -0.072670063964242    -0.049693375714932     0.000000000000000
    -0.162256826371443    -0.223808255796415     0.000000000000000
     0.000000000000025     0.000000000000005    -0.001429874795671
2 8
     0.213956653692410     0.147823417959739     0.000000000000000
     0.013302595907094     0.055658672906441     0.000000000000000
     0.000000000000021     0.000000000000004    -0.001260061782072
2 9
     0.168810103895289     0.076171079068970     0.000000000000000
     0.112981197437438     0.074991445946663     0.000000000000000
     0.000000000000021     0.000000000000003    -0.000265794282156
2 10
    -0.038417717236589    -0.142680153062594     0.000000000000000
    -0.118116377666231    -0.078526395284526    -0.000000000000000
     0.000000000000025     0.000000000000004     0.000698940519743
2 11
     0.171450163418548     0.095491004021173     0.000000000000000
     0.104093780843232     0.074663241187406     0.000000000000000
     0.000000000000021     0.000000000000004    -0.000233800525970
2 12
    -0.059375806782722    -0.142279292960901    -0.000000000000000
    -0.100518659094815    -0.156438504526906    -0.000000000000000
     0.000000000000025     0.000000000000004     0.001867943149595
2 13
    -0.060460937631255    -0.163426833586941     0.000000000000000
    -0.083206067084109    -0.221624340503595     0.000000000000000
     0.000000000000025     0.000000000000004    -0.001383114690477
2 14
    -0.084562076764550     0.281222000056238     0.000000000000000
    -0.119499658228731     0.249751173688136     0.000000000000000
     0.000000000000025     0.000000000000003    -0.038390046364329
2 15
    -0.020164029089912    -0.151248856892429     0.000000000000000
    -0.087532935344193    -0.196433550425578     0.000000000000000
     0.000000000000025     0.000000000000004    -0.018005101557884
2 16
     0.227829477109882     0.017718527144673     0.000000000000000
     0.134415319052891     0.059213929694257     0.000000000000000
     0.000000000000025     0.000000000000004    -0.001269906014744
2 17
    -0.109239739534551    -0.208334399272479    -0.000000000000000
    -0.070756305252866    -0.139924286292047    -0.000000000000000
    -0.000000000000004    -0.000000000000004     0.003854017091258
2 18
     0.561458445977102     0.185295411746218    -0.000000000000000