 128  128
1 1
    28.650722499999979     7.733015999999996    -1.584246999999999
     7.739519455224354    41.184219145168349    -6.280363862134503
    -1.584869500000003    -6.275877499999999     9.938273999999996
1 2
    -0.009470000000007     0.049101500000000    -0.072243000000000
    -0.030093548548933    -0.023519526146063     0.024576494363870
     0.005458499999996     0.041328500000001     0.105658000000000
1 3
    -0.037126500000007    -0.028592999999999    -0.007064499999999
    -0.032754601457412    -0.057860733218437     0.012447050748384
    -0.005623000000000     0.013809500000000    -0.034263500000000
1 4
    -0.006114500000002    -0.025506000000000     0.004062500000000
     0.052044513578492    -0.021992082356211     0.041721846556307
    -0.072920000000003     0.024060500000000     0.105701000000000
1 5
     0.008104999999986     0.049932000000001    -0.036857500000000
     0.252906405213777    -0.033545931296864    -0.037511325934556
    -0.184319500000008    -0.032787500000000     0.075424500000000
1 6
    -0.069321000000002    -0.075933000000000     0.023196000000000
    -0.192168091066852    -0.264964451776234     0.040633366530454
     0.048530999999997     0.069374500000000    -0.040197000000000
1 7
     0.008341499999993    -0.001955000000000     0.009512500000000
    -0.042517984559456    -0.088701720439197     0.022292185701809
     0.014836500000001     0.027541500000000    -0.008528500000000
1 8
     0.022023999999995     0.055945000000001    -0.004802000000000
    -0.069956161230452    -0.058639818195357     0.007898005643402
     0.026362999999996     0.031156500000000     0.019341500000000
1 9
    -0.005856000000001    -0.032634000000000    -0.020618999999999
    -0.029933918969521    -0.006078812270239    -0.033592844674936
    -0.022274499999995    -0.033632999999999    -0.028470000000000
1 10
     0.019988999999988    -0.008709999999999     0.003995500000000
     0.042209411316113    -0.004266309736304     0.008338869528329
    -0.010194500000004    -0.001439500000000    -0.007474000000000
1 11
     0.030758999999989     0.022345500000000    -0.002551000000000
     0.019640729344369     0.010204416919465    -0.003268153565065
    -0.001209500000002    -0.002049500000000     0.003236500000000
1 12
     0.023202499999996     0.045370000000000    -0.011482000000000
    -0.004372636521941    -0.002504352156633    -0.000905369597015
     0.003204000000004     0.007765000000000    -0.007421500000000
1 13
     0.008306499999996     0.252011500000000    -0.183370500000000
     0.052319343370291    -0.034013267349167    -0.033542950407600
    -0.037982000000000    -0.036908000000000     0.075457500000000
1 14
     0.018852499999994    -0.072690499999999     0.027401000000000
     0.052995807057076    -0.060596350396061     0.032171346319972
    -0.003973999999999     0.006834000000000     0.019325500000000
1 15
     0.008428499999994    -0.038060000000000     0.013167000000001
    -0.004546256089997    -0.089374839474827     0.025935432031756
     0.011118500000002     0.023921500000000    -0.008483500000000
1 16
    -0.065815000000008    -0.187866999999999     0.047634500000000
    -0.071566394820172    -0.264086419436633     0.070353594917555
     0.022079999999995     0.039587000000000    -0.040095500000000
1 17
    -0.098555500000003     0.100575000000001    -0.025899500000000
    -0.095923191512119     0.376708834340825    -0.159931998313678
     0.024335499999999    -0.160078500000000    -0.152978500000000
1 18
     0.010933000000001     0.008957500000000    -0.016248500000000
    -0.007045255707006     0.056979427998006    -0.017158385287210
     0.015105500000004    -0.014995500000000     0.010304000000000
1 19
     0.027818000000003    -0.000248999999999    -0.035724999999999
    -0.003280259100642     0.098332549077617    -0.068764035497379
     0.037417499999997    -0.070458000000000    -0.083966500000000
1 20
   -13.234199499999988    -0.512202999999999    -0.286827999999999
     0.513428692815983    -2.311810314680182    -0.752029118527697
     0.286506500000002    -0.751472000000000    -4.592556999999999
1 21
     0.022151500000007     0.117955000000001    -0.034823000000000
     0.140753025797119     0.051851565803220    -0.078055547502635
    -0.038897499999997    -0.000162000000000    -0.012661500000000
1 22
     0.011245000000009    -0.015540499999999     0.008575000000000
     0.032940863898965     0.003183594983059    -0.004623521813355
    -0.004404999999998    -0.013904999999999     0.007521500000000
1 23
    -0.027721000000000     0.045477500000000    -0.003727499999999
     0.024499591929571     0.015362995732180    -0.015035999481074
    -0.017304000000003     0.005585500000000     0.021669500000000
1 24
    -0.093681999999994    -0.002440999999999    -0.027630000000000
    -0.023686705629910     0.182159069653905    -0.156270135053786
     0.114886999999996    -0.134539000000000    -0.166776500000000
1 25
    -0.003939999999993     0.004091000000000    -0.008773500000000
    -0.000720533940397    -0.025885718268814     0.004409551407309
     0.007257000000003     0.004049500000000     0.008640500000000
1 26
    -0.073577499999999     0.081274500000000    -0.009916500000000
    -0.081055768656826     0.180877878311704    -0.045918636169151
     0.008911499999996    -0.043874000000000     0.013988500000000
1 27
    -0.009287499999992     0.000195000000001    -0.005197500000000
    -0.005038004642282     0.102255435427488    -0.039024175546063
     0.007024999999999    -0.040869000000000     0.019262500000000
1 28
    -0.037045999999989     0.005688500000001    -0.017954500000000
    -0.005926846746366    -0.021650666575340    -0.001542434657475
     0.018401500000003    -0.001308500000000    -0.036406500000000
1 29
     0.022133500000002    -0.135640000000000     0.036899000000000
    -0.114401625617303     0.051567070016413    -0.000309298254805
     0.032953499999998    -0.077899500000000    -0.012646000000000
1 30
     0.011039500000003    -0.030927500000000     0.003724000000000
     0.015842394930850     0.002391619877817    -0.015417193757068
    -0.009157000000009    -0.003190000000000     0.007627000000000
1 31
    -0.027789999999996    -0.028043499999999     0.018803500000001
    -0.050431189225149     0.014995731323126     0.006855983518466
     0.005269999999996    -0.016358000000000     0.021684000000000
1 32
    -0.093870499999987     0.024926000000001    -0.114297000000000
     0.002040727831560     0.181350326345060    -0.134388398329526
     0.028329000000006    -0.156385500000000    -0.166752500000000
1 33
     0.041363500000003    -0.142881999999998    -0.074036500000000
     1.088897135864362     0.107548317051262     0.013115458532719
    -0.208051500000003     0.035411500000000     0.217494000000000
1 34
    -0.019890499999999     0.006395000000001    -0.017168499999999
    -0.005657053306159     0.018246194499960    -0.005050077005291
    -0.002148999999996    -0.006368999999999    -0.017742500000000
1 35
     0.046288000000004    -0.001754500000001    -0.010357500000000
     0.043406328307564     0.000297036858757    -0.000089596136964
     0.003537500000000     0.004403500000000    -0.003131500000000
1 36
    -0.335130999999993     0.144446000000002    -0.123835000000000
    -0.075199758501535    -0.219859046631574     0.039245690355141
     0.025255500000004     0.111053000000000     0.002335000000000
1 37
    -0.209266499999995     0.013709000000000    -0.016548500000000
    -0.260882365337334     0.018631316979462    -0.051538817760164
     0.070282500000001    -0.007256500000000    -0.025236000000000
1 38
     0.000014000000004    -0.000025999999998     0.012859000000000
     0.054559298953415     0.006856390594112    -0.005093141245879
     0.009059500000003    -0.003300999999999     0.006415500000000
1 39
    -0.112159999999996    -0.003088000000000    -0.000764000000000
    -0.054706729099284     0.012864071448894    -0.013423576396423
     0.001936000000001    -0.006869000000002     0.002282000000000
1 40
    -0.024982500000000     0.001559500000001     0.005446500000000
     0.031591714238705    -0.019689817216481     0.013327037576088
     0.021637999999999     0.018397999999999     0.005692000000000
1 41
     0.034786000000000     0.002131500000003     0.007915500000000
     0.063545695250872    -0.005432302267653     0.009745910283527
     0.017930500000002     0.002909000000001     0.003338500000000
1 42
    -0.120389499999998     0.001678500000001    -0.005172000000000
    -0.167923944991167    -0.000828886971853    -0.015160750503101
     0.023463000000000     0.000071000000000     0.003326000000000
1 43
    -0.009494499999999     0.001156000000002     0.005638500000000
    -0.019798871328955    -0.000276436431074     0.007486185219149
     0.018850999999998    -0.000978999999999     0.002043500000000
1 44
    -0.139206999999992     0.005071500000000    -0.004402000000000
    -0.056908508068270     0.008782879941346    -0.014830871613466
    -0.008114500000001    -0.002591500000001    -0.005578500000000
1 45
     0.140880500000005    -0.033479499999999    -0.002060000000000
    -0.051366174165560    -0.016358495937365     0.000203326651858
     0.134341500000001    -0.008455500000000    -0.043912000000000
1 46
     0.085103500000002    -0.003463999999999     0.003357500000000
     0.031892057007315     0.004397161686838     0.000213957761041
    -0.005885499999998    -0.003302500000000     0.002517500000000
1 47
     0.022476500000003     0.004039000000002    -0.003738000000000
    -0.060943819143122     0.012706866257135    -0.013873992340623
     0.018901999999997    -0.006767000000000     0.006968500000000
1 48
     0.671405500000002    -0.060468999999999    -0.004844500000000
     0.160714782343367     0.064865021903073    -0.033164413115144
     0.101120500000004    -0.033287500000000     0.063242500000000
1 49
     1.334227499999999     0.620257999999998    -0.023408000000001
    -0.270647173096199    -2.540073811898568     0.921606567337815
    -0.061008500000000     0.854838000000003     0.818522999999999
1 50
    -0.033885500000002     0.065997999999997    -0.009022500000000
    -0.108326714934821     0.315409967637996    -0.107897630083068
     0.030798500000001    -0.117048000000000     0.006453500000000
1 51
     0.001256999999995     0.041709500000000    -0.021579500000001
    -0.013590979246764     0.095388529538669    -0.037538253422672
     0.001829499999999    -0.015163499999998     0.016164500000000
1 52
     0.065577499999996    -0.103168500000002    -0.001263000000001
     0.009201579545411    -0.001709425243337    -0.031793551496974
    -0.013947999999999    -0.025827000000001    -0.141290000000001
1 53
     0.107865499999999    -0.094877000000002     0.058850500000000
     0.050905825279770    -0.145188928824403     0.088207136214248
     0.010287000000000     0.038200500000002     0.019053000000000
1 54
     0.068047499999997     0.051289499999999    -0.020597000000001
     0.089465324075014     0.061722225428422    -0.034041285734347
    -0.029861499999999     0.003748000000002    -0.001474000000001
1 55
     0.049265499999999    -0.087978000000003     0.019341499999999
    -0.006027662125769    -0.022590881751396    -0.002957474727039
     0.005563000000000    -0.012703999999999     0.004808500000000
1 56
     0.028984499999996    -0.008278500000003    -0.002877500000001
    -0.014848256575697     0.063896057601053    -0.023818408091665
    -0.006027500000000    -0.006208000000001    -0.012342000000000
1 57
     0.056173499999998     0.058336499999998     0.065428499999999
     0.024152458348476    -0.005391451452508     0.040331476758791
     0.005702000000003     0.038034999999997     0.010709500000000
1 58
     0.056478499999999    -0.000854500000001     0.007527499999999
     0.016564514028742    -0.054701106670543     0.014549936763976
     0.009922500000002     0.017513500000002     0.011812500000000
1 59
     0.029028499999997     0.048084999999999    -0.019688000000000
    -0.002430045283647     0.129455744993830    -0.046149202950570
     0.004174000000003    -0.030823499999999     0.005974000000000
1 60
     0.061070999999997    -0.019470000000002     0.001033999999999
    -0.013641558306635     0.119430345214218    -0.050881948217868
     0.012101000000001    -0.040000500000000     0.020608000000000
1 61
    -2.845299500000003     0.274922499999999     0.176433499999999
    -1.459231785928544   -17.826761524404674     2.526665345634040
     0.190731500000002     2.453282999999999    -4.873034499999997
1 62
    -0.074423999999999    -0.041168000000001     0.045269999999999
    -0.064635603573326     0.023412663267971    -0.027855964164243
     0.022254499999999    -0.041585500000000     0.009583500000000
1 63
    -0.007033000000002    -0.005587499999999     0.014754500000000
     0.008673853744947     0.015525735627338    -0.005027702729086
     0.000749999999998    -0.008068000000000     0.021690500000000
1 64
    -0.182558500000003     0.223521499999997    -0.061185000000000
    -0.053979765963255     0.151245449886865    -0.049854371672618
     0.016959000000000    -0.004192000000000     0.058836500000000
1 65
    -0.006988000000014     0.142341500000000     0.102825500000000
    -0.046689110494221    -0.412445407444688     0.094738418573994
    -0.009745500000001     0.078726000000000    -0.215521500000000
1 66
     0.014087999999994    -0.008722000000000     0.026409500000000
     0.046579820581311    -0.046327910889942     0.017986798331766
    -0.017953999999996     0.014849000000000     0.018845000000000
1 67
    -0.052770500000008     0.036282500000000     0.016396000000000
    -0.020945612346303    -0.045920932240809     0.015215682667475
    -0.023457000000001     0.027281500000000     0.006327000000000
1 68
    -0.644424500000007     0.149775000000000     0.120191500000000
     1.312488374753194     0.092185929181509     0.354956095147690
    -0.396354000000002     0.336843500000000     1.466304500000000
1 69
     0.165328999999993    -0.051500500000000     0.032721000000000
     0.149637405433205    -0.031333289750016     0.062785218869617
    -0.042025500000001     0.000250500000000     0.016342000000000
1 70
    -0.000203500000005     0.026065500000000    -0.021930500000000
    -0.017231621976498    -0.000451479976372     0.005930952921141
    -0.013593499999999     0.005663500000000    -0.008956000000000
1 71
     0.088948999999992    -0.010889000000000    -0.004801500000000
     0.066094646039911    -0.026224332828821     0.013614572377104
    -0.007082499999996    -0.001101500000000    -0.020768000000000
1 72
    -0.017342000000006     0.044603000000000    -0.016238500000000
    -0.021736892222247     0.026540785932494     0.026268122608548
    -0.049718500000004     0.031810000000000     0.062179000000000
1 73
    -0.036303000000004    -0.021914000000000    -0.001059000000000
    -0.084690422658557     0.022026880640046    -0.018650863081425
    -0.006055999999994    -0.011630500000000     0.002720500000000
1 74
     0.106443499999997    -0.024846000000000     0.014108000000000
     0.157689211436358    -0.053777944305260     0.033480937490905
    -0.025541500000003     0.016946500000000    -0.007662000000000
1 75
     0.013214499999989    -0.001278000000000    -0.008580500000000
     0.039036061590851    -0.005840449233154    -0.003975982517419
    -0.020750499999998     0.005018500000000    -0.005190000000000
1 76
     0.111317499999991     0.018588000000000    -0.005704000000000
     0.081756216754959     0.004857588865799     0.020032918014296
    -0.008512499999995     0.013261000000000     0.021689000000000
1 77
    -0.150884500000004     0.059362000000000    -0.039634000000000
     0.170157260699403     0.113455686535913    -0.032592578632124
    -0.122280500000002    -0.011799500000000     0.007575000000000
1 78
    -0.054245000000002    -0.003192500000000    -0.007447500000000
    -0.004423221737531     0.005197743500503    -0.002297222049675
     0.000697500000001    -0.003408000000000    -0.013305500000000
1 79
    -0.018949500000005    -0.036577500000000     0.008851000000000
     0.055213731437842    -0.013792172607367     0.022629562763251
    -0.013441999999998     0.009626500000000     0.001094500000000
1 80
    -0.786180000000009    -0.764199999999999     0.219047000000000
    -0.244555242134114    -0.699608791678977     0.257647242822968
    -0.079933499999996     0.209751500000000     0.390657500000000
1 81
    -0.005550500000000    -0.055323000000003    -0.033780500000001
     0.052933270764773     0.003878134567504     0.117491658928426
    -0.018322999999997     0.043424500000000     0.190731999999999
1 82
    -0.020291499999997    -0.028467000000001     0.006211499999999
    -0.013701140595459    -0.052046305885705     0.027653789261540
     0.003266499999999     0.016615999999999    -0.016098500000000
1 83
    -0.022492499999997    -0.013824000000000     0.009543999999999
     0.020918824556747     0.033877180045787     0.013019427002360
    -0.010983500000000    -0.011776999999999     0.028571500000000
1 84
    -0.554843000000000     0.015391499999998     0.028159499999999
     0.058403790406099    -0.449815702287993     0.211704418382278
    -0.030180999999999     0.185019499999999    -0.103008999999999
1 85
    -0.070521500000000    -0.091629500000003     0.034641500000000
    -0.081657045367090    -0.111421840003581     0.048657467178311
     0.024114000000001     0.021116500000002    -0.013408500000001
1 86
    -0.019389499999997    -0.010131000000005    -0.005940000000001
     0.020105345069976    -0.067030882529682     0.025036474121630
    -0.000866500000003     0.031568999999999    -0.012695999999999
1 87
    -0.034459999999999    -0.013627500000002     0.009888500000000
    -0.000580215924900    -0.091666902493280     0.044711757897967
     0.000437000000002     0.028356999999998    -0.005565500000000
1 88
    -0.061399999999999     0.021954999999997     0.006767999999998
    -0.010097136034902     0.075071953612271    -0.028769111689168
    -0.010203000000001    -0.006441500000001     0.045196499999999
1 89
    -0.013554499999996     0.086177500000000    -0.038781500000002
     0.049446957482863     0.051685334317514    -0.039567646108556
    -0.010865000000001     0.018908500000000    -0.016651500000000
1 90
    -0.050617499999998    -0.056251000000003     0.022471999999999
    -0.047760459677867    -0.099063834919498     0.048960586088849
     0.003182000000001     0.014154000000000    -0.006914000000000
1 91
    -0.037236999999996     0.058731499999999    -0.017363000000000
    -0.038215316654846    -0.002891437331958     0.004997151572541
     0.007397500000000     0.022773000000001    -0.015190500000000
1 92
    -0.058132499999997    -0.072626500000002     0.094731499999999
     0.018997355145945    -0.121251919906043     0.050312703782291
    -0.030639499999998     0.035461999999999     0.066788500000000
1 93
     0.076442000000000    -0.008693000000003     0.036363000000000
    -0.049114534337952    -0.315542013667731     0.135431969686906
     0.044352000000000     0.132183000000003    -0.000589499999999
1 94
     0.023774500000004     0.044158999999997    -0.002308500000001
    -0.010243177132395    -0.017371219358774     0.011978418350803
     0.001975500000000     0.011059500000002    -0.001600000000000
1 95
     0.075627000000003    -0.072080000000001     0.057891499999999
    -0.012094818688394    -0.186650152856053     0.088791502117559
    -0.010577000000000     0.044780500000000    -0.023103000000001
1 96
    -2.305702499999994    -0.932294000000002     0.289207499999999
    -2.282835490837958    -2.054751487150181     0.590258378023958
     0.518493500000000     0.747375500000000     0.820395000000000
1 97
    -2.427964000000003    -1.845586499999998     0.234288500000000
    -2.708516693251966     0.422671402968930     0.030631349074574
     0.649442499999996    -0.016791500000002     0.445638499999999
1 98
     0.002871999999993    -0.004569999999999    -0.012284000000000
    -0.065635598853080    -0.015065705289760     0.002444852239676
     0.026064499999993    -0.003382499999999    -0.042265500000000
1 99
    -0.056937000000005    -0.001346499999997    -0.012094500000000
    -0.076631842207346    -0.001696113988502     0.005945804875528
     0.007946000000000     0.004336500000001     0.002345500000000
1 100
     0.265666499999995     0.010447500000000    -0.050689999999999
     0.112900430493201    -0.011904300607898    -0.077271845315927
    -0.044674000000001    -0.041557500000000    -0.299541500000000
1 101
     0.179548499999992     0.006299500000003    -0.009462500000000
     0.277858071294526     0.008726946935928    -0.039732079101684
    -0.081237999999999     0.004802500000002    -0.016715500000000
1 102
    -0.006330000000002    -0.006733499999998     0.009427000000000
    -0.105268742092902     0.005090323985547     0.000660168671584
     0.007914499999998    -0.004373500000000    -0.001819000000000
1 103
     0.105821999999996     0.003416500000002     0.006318000000000
     0.008699617379448    -0.002317692063048     0.002601208929701
     0.012230000000002     0.001772500000000     0.002070500000000
1 104
     0.040232999999997     0.001384500000000     0.000135000000000
    -0.063687273606130    -0.005832599205653    -0.010302702204242
    -0.005137999999999    -0.001045500000000    -0.009252500000000
1 105
    -0.033451000000007    -0.007766499999999     0.005792000000000
    -0.038381381627792    -0.002897051447512    -0.003779719159750
    -0.029579499999997    -0.002537999999998    -0.000273000000000
1 106
     0.092597999999999     0.003401000000000    -0.001686000000000
     0.107868127552509    -0.003409729957058    -0.000486775649309
    -0.008412000000000     0.002415500000000    -0.000255000000000
1 107
     0.003820499999996    -0.008981999999998     0.008635500000000
    -0.018251840335651    -0.019824272130509     0.009592530214367
    -0.005477500000001     0.003655999999998    -0.000409500000000
1 108
     0.136799499999992     0.006404000000002    -0.001266500000000
     0.020416732922181    -0.002296714645940    -0.004539675914480
     0.019167499999998     0.003047499999999     0.001994500000000
1 109
     0.084997999999995     0.054463000000000    -0.032602500000000
    -0.089079617971306    -0.005515201667253     0.023497670525338
    -0.074908500000003    -0.008969000000000    -0.092956000000000
1 110
    -0.087348500000004    -0.002810000000000     0.005031500000000
    -0.061633159194439    -0.016721632309991     0.009205220553635
     0.018874499999999     0.003997500000001     0.002376500000000
1 111
    -0.025009000000004     0.001081000000001    -0.000998500000000
     0.015757896280562     0.001146608394953    -0.003598744441200
    -0.004459000000001    -0.001373500000000     0.000879500000000
1 112
    -0.608084000000002    -0.002121499999998     0.001050500000001
    -0.300964232559010     0.013783352559683     0.006130268545898
    -0.024832500000002    -0.014054500000000    -0.038954000000000
1 113
    -7.435531499999989    -6.203910499999996     1.385763999999999
    -4.195793901758652   -14.914173152625695     1.767783298450816
     0.877093500000001     1.938823500000000    -5.116601999999999
1 114
     0.024054000000014    -0.014500500000000     0.037238000000000
     0.063208885980934    -0.056515620871681    -0.000585142588227
    -0.015082500000005     0.029414000000000     0.033869000000000
1 115
     0.053003500000010     0.016739000000001     0.011210000000000
     0.070513625193033     0.009785994597342    -0.010799785534075
    -0.008476999999999    -0.009971500000000     0.005793500000000
1 116
    -0.061389499999997     0.086665500000000     0.040279500000000
     0.001029722536302     0.042005756173318     0.053332957644309
     0.070414000000000     0.024926000000000     0.195087000000000
1 117
    -0.119749999999996     0.066756500000000     0.002116500000000
    -0.143398370291044    -0.059278686299773     0.084241354711933
     0.074896000000003     0.045575000000000     0.010672000000000
1 118
    -0.015524999999997     0.072635000000000    -0.050345500000000
     0.085285621213977     0.165345638539204    -0.049351951475347
    -0.010788500000004    -0.038189500000000     0.039453000000000
1 119
    -0.074526499999990     0.035302000000000    -0.014783500000000
     0.024037102355733     0.053780595099326    -0.014827621316257
    -0.018837500000004    -0.015080500000000     0.001935000000000
1 120
    -0.043777999999989    -0.013090000000000    -0.000474000000000
     0.071557512535497     0.019439776593151     0.003769809650585
    -0.002063999999997    -0.014489500000000     0.008978000000000
1 121
     0.029444500000004     0.038895500000000    -0.022280000000000
    -0.001881950925290    -0.005963225057961     0.005131579220695
     0.037350999999994     0.010463500000000    -0.006804000000000
1 122
    -0.054510499999992     0.010936000000000     0.000278500000000
    -0.028530180510080     0.020940439821486     0.008278298114607
    -0.008241000000005    -0.002529000000000    -0.004339500000000
1 123
    -0.004306999999997     0.020085000000000    -0.017404500000000
     0.033050831815272     0.006576551192925    -0.018209939049460
    -0.003597999999997     0.005051000000000    -0.002800500000000
1 124
    -0.087300999999989    -0.012062000000000     0.010887000000000
     0.036500423559755    -0.040735630324207     0.020592673387438
    -0.023907999999999     0.008578500000000    -0.002328000000000
1 125
     0.180286000000009     0.888218000000000    -0.098870000000000
     0.300378173600185    -0.811238657459961     0.548420782758045
    -0.159238999999999     0.454329000000000     1.028548000000000
1 126
     0.070255000000010     0.008574000000000    -0.015829000000000
     0.080097131490492     0.006020319012265    -0.015356239751234
    -0.027752500000005    -0.000190500000000    -0.046401500000000
1 127
     0.008925500000011    -0.005382000000000    -0.001285000000000
     0.007995975373587     0.018953852020953    -0.000372796600358
    -0.010174499999998    -0.006085000000000     0.000227500000000
1 128
     0.413466500000006     0.014161000000000    -0.036977500000000
     0.279067432871713     0.142797644657210    -0.076121292192780
    -0.026547000000008    -0.041129000000000    -0.006909500000000
2 1
    -0.006114500000002    -0.025506000000000     0.004062500000000
     0.052044513578492    -0.021992082356211     0.041721846556307
    -0.072920000000003     0.024060500000000     0.105701000000000
2 2
    28.650722499999979     7.733015999999995    -1.584246999999999
     7.739519455224353    41.184219145168342    -6.280363862134502
    -1.584869500000003    -6.275877499999998     9.938273999999996
2 3
    -0.009470000000007     0.049101500000000    -0.072243000000000
    -0.030093548548933    -0.023519526146063     0.024576494363870
     0.005458499999996     0.041328500000001     0.105658000000000
2 4
    -0.037126500000007    -0.028592999999999    -0.007064499999999
    -0.032754601457412    -0.057860733218437     0.012447050748384
    -0.005623000000000     0.013809500000000    -0.034263500000000
2 5
     0.022023999999995     0.055945000000001    -0.004802000000000
    -0.069956161230452    -0.058639818195357     0.007898005643402
     0.026362999999996     0.031156500000000     0.019341500000000
2 6
     0.008104999999986     0.049932000000001    -0.036857500000000
     0.252906405213777    -0.033545931296864    -0.037511325934556
    -0.184319500000008    -0.032787500000000     0.075424500000000
2 7
    -0.069321000000002    -0.075933000000000     0.023196000000000
    -0.192168091066852    -0.264964451776234     0.040633366530454
     0.048530999999997     0.069374500000000    -0.040197000000000
2 8
     0.008341499999993    -0.001955000000000     0.009512500000000
    -0.042517984559456    -0.088701720439197     0.022292185701809
     0.014836500000001     0.027541500000000    -0.008528500000000
2 9
     0.023202499999996     0.045370000000000    -0.011482000000000
    -0.004372636521941    -0.002504352156633    -0.000905369597015
     0.003204000000004     0.007765000000000    -0.007421500000000
2 10
    -0.005856000000001    -0.032634000000000    -0.020618999999999
    -0.029933918969521    -0.006078812270239    -0.033592844674936
    -0.022274499999995    -0.033632999999999    -0.028470000000000
2 11
     0.019988999999988    -0.008709999999999     0.003995500000000
     0.042209411316113    -0.004266309736304     0.008338869528329
    -0.010194500000004    -0.001439500000000    -0.007474000000000
2 12
     0.030758999999989     0.022345500000000    -0.002551000000000
     0.019640729344369     0.010204416919465    -0.003268153565065
    -0.001209500000002    -0.002049500000000     0.003236500000000
2 13
    -0.065815000000008    -0.187866999999999     0.047634500000000
    -0.071566394820172    -0.264086419436633     0.070353594917555
     0.022079999999995     0.039587000000000    -0.040095500000000
2 14
     0.008306499999996     0.252011500000000    -0.183370500000000
     0.052319343370291    -0.034013267349167    -0.033542950407600
    -0.037982000000000    -0.036908000000000     0.075457500000000
2 15
     0.018852499999994    -0.072690499999999     0.027401000000000
     0.052995807057076    -0.060596350396061     0.032171346319972
    -0.003973999999999     0.006834000000000     0.019325500000000
2 16
     0.008428499999994    -0.038060000000000     0.013167000000001
    -0.004546256089997    -0.089374839474827     0.025935432031756
     0.011118500000002     0.023921500000000    -0.008483500000000
2 17
   -13.234199499999988    -0.512202999999999    -0.286827999999999
     0.513428692815983    -2.311810314680181    -0.752029118527697
     0.286506500000002    -0.751472000000000    -4.592556999999999
2 18
    -0.098555500000003     0.100575000000001    -0.025899500000000