 128  128
1 1
    29.761119186380952     1.964958304497165    -0.000000000000000
     1.963662565873449    45.204360116505555    -0.000000000000015
     0.000000000000002    -0.000000000000032    10.859912393619084
1 2
    -0.193116887859473     0.144391484894213    -0.000000000000000
    -0.122266626534517     0.407637416230406     0.000000000000000
    -0.000000000000000     0.000000000000003    -0.213560848653571
1 3
    -0.059263625070432    -0.019167240766639    -0.000000000000000
    -0.020450881501032    -0.038998363824925    -0.000000000000000
    -0.000000000000000     0.000000000000004     0.009405705012034
1 4
    -0.193188463538699    -0.119842064248387    -0.000000000000000
     0.142205070504969     0.407732866190903     0.000000000000000
    -0.000000000000000     0.000000000000003    -0.213504425708087
1 5
     0.108591716001349     0.153410020476686    -0.000000000000000
     0.073223313752507     0.163682955061974     0.000000000000000
    -0.000000000000000     0.000000000000003    -0.010154249422110
1 6
     0.008831297754934    -0.387180856807835    -0.000000000000000
    -0.034610476501556    -0.434714924256388    -0.000000000000000
    -0.000000000000000     0.000000000000004     0.005143891863210
1 7
    -0.129632891036420     0.016177140833755    -0.000000000000000
    -0.069339980373597     0.113115852065764    -0.000000000000000
     0.000000000000000    -0.000000000000000     0.004419797396177
1 8
    -0.001883788890933     0.067227716045179    -0.000000000000000
    -0.043391657351575    -0.141267759862474     0.000000000000000
    -0.000000000000000     0.000000000000004    -0.001384242929186
1 9
    -0.035921655013285    -0.035892609810122    -0.000000000000000
    -0.035325623853228    -0.134564235147762     0.000000000000000
    -0.000000000000000     0.000000000000004    -0.002034987567091
1 10
    -0.007203210384714    -0.000271261450982     0.000000000000000
     0.030668218349761     0.082092436728418    -0.000000000000000
    -0.000000000000000     0.000000000000003     0.000394960618382
1 11
     0.048355595289260    -0.058147459405983    -0.000000000000000
    -0.057582536840202    -0.201122267061749    -0.000000000000000
    -0.000000000000000     0.000000000000004     0.000090276712773
1 12
    -0.007233292916562     0.031270791856621     0.000000000000000
    -0.000516859226050     0.081939729491539    -0.000000000000000
    -0.000000000000000     0.000000000000003     0.000421291326274
1 13
     0.108995755523936     0.075226038866508    -0.000000000000000
     0.152701584497230     0.161963550013661     0.000000000000000
    -0.000000000000000     0.000000000000003    -0.010084661122681
1 14
    -0.001409729682147    -0.042591678454198    -0.000000000000000
     0.067854317448216    -0.143032804631636     0.000000000000000
    -0.000000000000000     0.000000000000004    -0.001269516273370
1 15
    -0.129173354429215    -0.067389539319953    -0.000000000000000
     0.015605131359785     0.111304433260722    -0.000000000000000
    -0.000000000000000     0.000000000000003     0.004451770398617
1 16
     0.009188138822379    -0.034026974171169     0.000000000000000
    -0.386686467985074    -0.436390206320853    -0.000000000000000
     0.000000000000000     0.000000000000004     0.005160818746855
1 17
     0.132323202979500    -0.015772063982485    -0.000000000000000
    -0.485551831888165     0.021926045917290    -0.000000000000000
     0.000000000000001    -0.000000000000000     0.001322177689154
1 18
    -0.013844188622464    -0.189939550099050    -0.000000000000000
     0.269517956185664    -0.120359774322181    -0.000000000000000
     0.000000000000001     0.000000000000000     0.001105889731469
1 19
    -0.105535745697005     0.042190750917665    -0.000000000000000
    -0.027891300154088    -0.011461499269070     0.000000000000000
     0.000000000000001     0.000000000000000    -0.005867986330243
1 20
    -0.066461648811724     0.076809002438958     0.000000000000000
    -0.032763930981079     0.028504067951391     0.000000000000000
     0.000000000000001    -0.000000000000000    -0.004327639918555
1 21
    -0.736740395552941     0.819756772839554    -0.000000000000000
     0.313760878822109    -0.687661232221276    -0.000000000000001
     0.000000000000001     0.000000000000001     0.767032328545889
1 22
     0.568617942344917    -0.407697143528582    -0.000000000000000
    -1.148286704142051    -0.812359168811742    -0.000000000000001
     0.000000000000002     0.000000000000001     0.858334058161808
1 23
    -0.351824027263226     0.316635763629836    -0.000000000000000
    -0.290263305443365     0.222527831578319     0.000000000000000
     0.000000000000001    -0.000000000000000    -0.017477947745818
1 24
    -0.135407699822667     0.038629082879659     0.000000000000000
    -0.026639744750507     0.057936388528525    -0.000000000000000
     0.000000000000001    -0.000000000000000     0.051572452936412
1 25
    -0.032079389566140     0.049096247969946     0.000000000000000
    -0.002470194880081     0.024635294921531    -0.000000000000000
     0.000000000000000    -0.000000000000000     0.005006596029201
1 26
     0.042942814213880    -0.138706923703511    -0.000000000000000
     0.046335027870511    -0.097066750570528    -0.000000000000000
     0.000000000000001     0.000000000000000     0.021935360438984
1 27
     0.032398886800945    -0.040136321458142    -0.000000000000000
    -0.001782693680998    -0.006959161736099     0.000000000000000
     0.000000000000001     0.000000000000000    -0.014940795963927
1 28
    -0.042625391636444     0.096989194665948     0.000000000000000
     0.017171898515708     0.023357869834701     0.000000000000000
     0.000000000000001     0.000000000000000    -0.002465682717612
1 29
     0.002410233198283     0.000427898082329    -0.000000000000000
     0.094675319895476    -0.051483118592832     0.000000000000000
     0.000000000000001     0.000000000000000    -0.003398542082933
1 30
    -0.020484648195872     0.028246978741496    -0.000000000000000
     0.005170873366954     0.004605940437567    -0.000000000000000
     0.000000000000001     0.000000000000000     0.004399108982833
1 31
     0.007323540512108    -0.020606534316293    -0.000000000000000
     0.039877617757200    -0.037232642193123     0.000000000000000
     0.000000000000001     0.000000000000000    -0.006195239414045
1 32
     0.026080517784054    -0.044191757949939     0.000000000000000
    -0.092132623124157     0.012575171385943    -0.000000000000000
     0.000000000000001    -0.000000000000000     0.001414335166777
1 33
     0.667126304869219     0.085012716339809    -0.000000000000000
     0.061605609789497     0.419626674977460    -0.000000000000000
     0.000000000000004     0.000000000000001     0.249558687871795
1 34
    -0.003763428467129    -0.160079006588919    -0.000000000000000
    -0.079504020445624    -0.194649369494364     0.000000000000000
     0.000000000000004     0.000000000000002    -0.025236102749746
1 35
     0.045559475820364    -0.012162160160654     0.000000000000000
     0.012426293434540    -0.035640461213127    -0.000000000000000
     0.000000000000004     0.000000000000004     0.000475833506908
1 36
     0.004494226525309     0.182022138915102    -0.000000000000000
     0.135279541199395    -0.249787644765885     0.000000000000000
     0.000000000000003     0.000000000000004    -0.026637272562576
1 37
    -0.647405649249436    -0.232634961421695    -0.000000000000000
     0.176997781887712     0.243193617075677     0.000000000000000
     0.000000000000003     0.000000000000003    -0.049652192025137
1 38
     0.508099149566319     0.184852490230582    -0.000000000000000
     0.163472641480061     0.023080145543858     0.000000000000000
     0.000000000000003     0.000000000000004    -0.350565164110808
1 39
     0.096220534110781    -0.034587650325103    -0.000000000000000
     0.020795686031466    -0.058553009806547     0.000000000000000
     0.000000000000004     0.000000000000004    -0.017758181708384
1 40
     0.503512600788092    -0.118215014206851    -0.000000000000000
    -0.217468026185188     0.130374475469189     0.000000000000001
     0.000000000000004     0.000000000000002    -0.458035829137337
1 41
    -0.102235484487479    -0.001388983108461    -0.000000000000000
    -0.046621285358620     0.088161163519100     0.000000000000000
     0.000000000000004     0.000000000000002    -0.011293992920869
1 42
     0.003622870430386     0.013999787925129     0.000000000000000
     0.064188975713678     0.004399923860046    -0.000000000000000
     0.000000000000004     0.000000000000002     0.000092157477622
1 43
     0.108284666710753     0.092649011450273    -0.000000000000000
     0.054071515123779     0.142100176862897    -0.000000000000000
     0.000000000000004     0.000000000000002     0.007291725321267
1 44
     0.017713424615403     0.007199579734315     0.000000000000000
     0.035076304522487     0.017125557707987     0.000000000000000
    -0.000000000000000     0.000000000000002    -0.000756067469474
1 45
     0.025375652942979     0.001110979021028    -0.000000000000000
     0.029292123751421     0.026291946135018     0.000000000000000
     0.000000000000004     0.000000000000004    -0.001171716501199
1 46
    -0.020907878299124     0.017483137647457     0.000000000000000
    -0.010924267789617     0.068129370144371    -0.000000000000000
     0.000000000000004     0.000000000000003     0.000750425174925
1 47
     0.016731593015586     0.053913602380457     0.000000000000000
     0.062111080508243    -0.041926459287955    -0.000000000000000
     0.000000000000004     0.000000000000002     0.000814371179806
1 48
     0.022321757296003     0.041447504915268    -0.000000000000000
     0.044905795777874     0.194047695483256     0.000000000000000
     0.000000000000004     0.000000000000002    -0.001271397038219
1 49
     0.051045907232341    -0.299359573054917    -0.000000000000000
    -0.182529420265974    -2.022606110862816    -0.000000000000001
     0.000000000000000    -0.000000000000006     0.388929005509624
1 50
     0.016478484816585     0.346654499764346    -0.000000000000000
    -0.013117615794377     0.412703198469387    -0.000000000000000
     0.000000000000000    -0.000000000000004     0.011470784816716
1 51
     0.011559472194996     0.000925815850861     0.000000000000000
     0.001336930182714     0.023119493954978    -0.000000000000000
     0.000000000000000    -0.000000000000004     0.001512134938947
1 52
     0.018079082976668    -0.362706642491622    -0.000000000000000
     0.022932775015482     0.493563194101444    -0.000000000000000
     0.000000000000000    -0.000000000000004     0.021690861008557
1 53
    -0.072288324032192     0.317692801559277    -0.000000000000000
    -0.024916953072803     0.060397978517713     0.000000000000000
     0.000000000000000    -0.000000000000004    -0.065674427777490
1 54
    -0.012845759763696    -0.539180110273691    -0.000000000000000
    -0.015965689882450    -0.322783988220380     0.000000000000000
     0.000000000000000    -0.000000000000007    -0.126618731958647
1 55
     0.007851022148143     0.055488785987777    -0.000000000000000
     0.003461936513831     0.086858937488316    -0.000000000000000
     0.000000000000000    -0.000000000000004     0.007368836680094
1 56
     0.000657147721589     0.280675727455229     0.000000000000000
    -0.013046477766638    -0.158084215248429     0.000000000000000
     0.000000000000000    -0.000000000000007    -0.038617744653490
1 57
    -0.011009169327904    -0.021592515230845    -0.000000000000000
    -0.006469627165789    -0.185824665285014     0.000000000000000
     0.000000000000000    -0.000000000000003    -0.002819266509306
1 58
    -0.001650389936936    -0.015449454761628    -0.000000000000000
     0.000937637667312     0.037872741951642     0.000000000000000
     0.000000000000000    -0.000000000000004    -0.001679523010547
1 59
     0.011251385575720    -0.153830138593879    -0.000000000000000
     0.003897810013038    -0.293507039774494    -0.000000000000000
     0.000000000000000    -0.000000000000003     0.002516463368547
1 60
     0.002739585055592    -0.014877367992161     0.000000000000000
     0.004458388150711    -0.003306286464364     0.000000000000000
     0.000000000000000    -0.000000000000004    -0.000231334076481
1 61
     0.003706894053827     0.017297455812949    -0.000000000000000
     0.003972587472855     0.017331099897715     0.000000000000000
     0.000000000000000    -0.000000000000004    -0.001907095557329
1 62
    -0.001447073514786    -0.063777042176405    -0.000000000000000
    -0.003706441689556    -0.160011627902272     0.000000000000000
     0.000000000000000    -0.000000000000003    -0.001305250805509
1 63
    -0.003402956749288    -0.109823025149769    -0.000000000000000
     0.005411180254073     0.116118811103647     0.000000000000000
     0.000000000000000    -0.000000000000007    -0.000126011244912
1 64
     0.002756182314543    -0.067936211536646     0.000000000000000
    -0.001629990940500    -0.413564353725257     0.000000000000000
     0.000000000000000    -0.000000000000007    -0.000097799772171
1 65
    -0.124270420402228     0.212982250830739    -0.000000000000000
    -0.218396819676677     0.067547446361487    -0.000000000000000
    -0.000000000000003    -0.000000000000002     0.016798991635171
1 66
     0.174136884920372    -0.057877235283685    -0.000000000000000
     0.244130172625134    -0.017703899226413    -0.000000000000000
    -0.000000000000007    -0.000000000000002     0.011356058160901
1 67
     0.000601650636975    -0.038364045400785    -0.000000000000000
    -0.018025269457322     0.031256887890766     0.000000000000000
    -0.000000000000004    -0.000000000000002    -0.008450276468520
1 68
    -0.145456302788782    -0.034084027248810    -0.000000000000000
     0.174578259218691    -0.065601563772101    -0.000000000000000
    -0.000000000000004    -0.000000000000002     0.006291158421367
1 69
     0.955763011313142     0.787071064657364     0.000000000000000
     1.388271519134936    -1.469366755466226    -0.000000000000002
    -0.000000000000005    -0.000000000000001     1.127492196529585
1 70
    -0.424068264826323    -0.210301274845815    -0.000000000000000
    -0.387973484774314    -0.115011635934827    -0.000000000000001
    -0.000000000000007    -0.000000000000002     1.045336626376479
1 71
     0.025212792339527    -0.031588214434059    -0.000000000000000
     0.053835788169760    -0.007453217128822    -0.000000000000000
    -0.000000000000007    -0.000000000000002     0.018728656370694
1 72
    -0.087896490082535    -0.245893059337450     0.000000000000000
     0.107603593506813     0.158996674563705    -0.000000000000000
    -0.000000000000004    -0.000000000000002     0.067577761805121
1 73
     0.036030574525155     0.095736620279494    -0.000000000000000
    -0.044331874292531     0.051346394083112    -0.000000000000000
    -0.000000000000004    -0.000000000000002     0.000910290187128
1 74
    -0.042098947329091    -0.044463019400917     0.000000000000000
    -0.046848585838749    -0.107508313721933    -0.000000000000000
    -0.000000000000004    -0.000000000000002     0.016934406704331
1 75
    -0.041597917574505    -0.128438407056292     0.000000000000000
    -0.093730700260352    -0.051310681991938     0.000000000000000
    -0.000000000000003    -0.000000000000002    -0.015922555215334
1 76
     0.008970299798651     0.013558923234247     0.000000000000000
    -0.015898110720808    -0.042094038529385     0.000000000000000
    -0.000000000000004    -0.000000000000002    -0.005204076338392
1 77
     0.008620201367657    -0.038595888361756    -0.000000000000000
    -0.002688752400413    -0.061633790209200     0.000000000000000
    -0.000000000000004    -0.000000000000002    -0.002802339625661
1 78
    -0.009336995488596     0.031835617325298     0.000000000000000
    -0.056460410087286     0.027950803939786    -0.000000000000000
    -0.000000000000007    -0.000000000000002     0.004598470056873
1 79
    -0.057638131021921    -0.025050969064753    -0.000000000000000
     0.010714369705788    -0.061326244783250     0.000000000000000
    -0.000000000000007    -0.000000000000002    -0.004297547680964
1 80
    -0.017586351851561    -0.045752937620012     0.000000000000000
    -0.154581069637093    -0.069174775290322    -0.000000000000000
    -0.000000000000003    -0.000000000000002     0.001636265419010
1 81
    -0.445617212252431     0.345250994054306    -0.000000000000000
    -0.103063981862327     0.678219070218103    -0.000000000000002
     0.000000000000000    -0.000000000000001     1.184902543558649
1 82
   -13.509281351386342    -5.919344459828615     0.000000000000000
    -4.131333144393412    -8.771042792602072     0.000000000000007
    -0.000000000000011     0.000000000000005    -5.409933574222435
1 83
     0.103529552021312    -0.057350272311992    -0.000000000000000
     0.054713995427370    -0.104323158916561    -0.000000000000000
    -0.000000000000007    -0.000000000000001     0.012794843270720
1 84
     0.060986109350937     0.027645328104523    -0.000000000000000
     0.087038089213010     0.022669713784179    -0.000000000000000
    -0.000000000000007    -0.000000000000001     0.002292652351464
1 85
     0.054891803329886    -0.010343722976839    -0.000000000000000
     0.082145476447383     0.053878926665248     0.000000000000000
    -0.000000000000007    -0.000000000000001    -0.029776269096286
1 86
    -0.102017126799401     0.094709146217562    -0.000000000000000
    -0.134929601877317     0.017251846664139     0.000000000000000
    -0.000000000000007    -0.000000000000001    -0.005395914353035
1 87
    -0.051987283013460    -0.000127591428185    -0.000000000000000
     0.057618423174116     0.079978765212489    -0.000000000000000
    -0.000000000000007    -0.000000000000001     0.055177879152782
1 88
     0.099560213810323    -0.032785810400238     0.000000000000000
    -0.052610761798888    -0.047576291438616     0.000000000000000
    -0.000000000000007    -0.000000000000001    -0.008779410317172
1 89
    -0.046370666851592    -0.026313916738052    -0.000000000000000
    -0.130785778436742    -0.027487777066552    -0.000000000000000
     0.000000000000000    -0.000000000000001     0.001286443157015
1 90
     0.056870507795443     0.019886109544953    -0.000000000000000
     0.059623324868006     0.063765582871794     0.000000000000000
    -0.000000000000007    -0.000000000000001    -0.003039315996690
1 91
    -0.000442939348252     0.033825732406385    -0.000000000000000
    -0.087316615382150    -0.031208886226342    -0.000000000000000
     0.000000000000000    -0.000000000000001     0.003366569080492
1 92
    -0.082291284536192     0.002105777229403    -0.000000000000000
     0.049529894430510     0.108574396602217     0.000000000000000
    -0.000000000000007    -0.000000000000001    -0.003776575817669
1 93
     0.057051002986537    -0.010310528458937    -0.000000000000000
     0.455680896118011     0.499122372602682    -0.000000000000000
    -0.000000000000007    -0.000000000000001     0.008486011000660
1 94
    -0.177475008626880    -0.000153005980954    -0.000000000000000
    -0.375921929797222    -0.050018227031381     0.000000000000000
    -0.000000000000007    -0.000000000000001    -0.010079018828133
1 95
     0.059755837531203    -0.004646713841924     0.000000000000000
     0.055356903197367     0.042761775487898    -0.000000000000000
    -0.000000000000007    -0.000000000000001     0.000586798633024
1 96
     0.062049889916823     0.046658525561525    -0.000000000000000
    -0.035860205225546    -0.135826060741526     0.000000000000000
    -0.000000000000007    -0.000000000000001    -0.002337790707850
1 97
    -4.895552396061572    -0.258527722713868    -0.000000000000000
    -0.572254942602881   -24.688547758470133     0.000000000000005
    -0.000000000000000     0.000000000000023    -3.903205834217225
1 98
     0.032094430832063    -0.396722724711608     0.000000000000000
    -0.009046254617145    -0.522146874644100    -0.000000000000000
     0.000000000000000     0.000000000000004     0.065129005971154
1 99
     0.028260982678735     0.006646683545513    -0.000000000000000
     0.009320115655886     0.004107384408524     0.000000000000000
     0.000000000000000     0.000000000000004    -0.004124517314815
1 100
     0.056521965357471     0.372867276955660    -0.000000000000000
    -0.014246090543151    -0.547352713978437    -0.000000000000000
     0.000000000000000     0.000000000000004     0.140730110623972
1 101
    -0.014974358224155    -0.315290348326126    -0.000000000000000
    -0.015640410862296    -0.197348665795300    -0.000000000000000
     0.000000000000000     0.000000000000004     0.020332948787263
1 102
     0.003604717178410     0.719699159925045    -0.000000000000000
     0.016764927386928     0.634202667579546    -0.000000000000000
     0.000000000000000     0.000000000000003     0.045979058274186
1 103
     0.015240951696055    -0.046278344598682     0.000000000000000
     0.002912414305777    -0.118205695540617     0.000000000000000
     0.000000000000000     0.000000000000004    -0.009680296680052
1 104
    -0.004903971355665    -0.241790943054855    -0.000000000000000
     0.012919104663793     0.213208954065262    -0.000000000000000
     0.000000000000000     0.000000000000003     0.022396147827096
1 105
     0.005427303676962     0.033424286205507    -0.000000000000000
     0.005564200477720     0.224470734263452    -0.000000000000000
     0.000000000000000     0.000000000000003     0.003138996533710
1 106
    -0.002123411817038    -0.001013470124694    -0.000000000000000
    -0.009225611999615    -0.079750460094802     0.000000000000000
     0.000000000000000     0.000000000000004    -0.000665790756701
1 107
     0.000353729081392     0.168161353033686    -0.000000000000000
     0.021405189705602     0.353804320414783     0.000000000000000
     0.000000000000000     0.000000000000003    -0.002898258632982
1 108
     0.002481290213167     0.007230699594850    -0.000000000000000
    -0.006814921721565    -0.023899643949507     0.000000000000000
     0.000000000000000     0.000000000000004    -0.001527181057743
1 109
    -0.019183838025591    -0.040255095592512    -0.000000000000000
    -0.041821384876292    -0.058196525374447    -0.000000000000000
     0.000000000000000     0.000000000000004     0.010218195426991
1 110
     0.009339588810307     0.078945899528892    -0.000000000000000
    -0.009445210195593     0.210543827614353     0.000000000000000
     0.000000000000000     0.000000000000003    -0.001888287908835
1 111
     0.022128814160700     0.116577072214123    -0.000000000000000
    -0.002725257752585    -0.141774907150074     0.000000000000000
     0.000000000000000     0.000000000000004    -0.003629876159413
1 112
    -0.005247327150212     0.068853210093688    -0.000000000000000
     0.061207602169391     0.533875039664382     0.000000000000000
     0.000000000000000     0.000000000000003    -0.002213660227787
1 113
   -11.094655584788375     4.010991106983679    -0.000000000000000
     2.852490944664776    -8.450818777355146     0.000000000000009
     0.000000000000005     0.000000000000007    -6.303680553734293
1 114
    -0.542283279033180    -0.863938157502650    -0.000000000000000
    -0.024203934014967    -0.256238562712915    -0.000000000000001
     0.000000000000007    -0.000000000000002     0.450537219682632
1 115
    -0.035389505398173    -0.024941530888543    -0.000000000000000
    -0.091013185407519     0.025025033027367     0.000000000000000
     0.000000000000007    -0.000000000000002    -0.013044984995695
1 116
     0.003096426123035     0.005531036545406     0.000000000000000
     0.012495271751401    -0.111988199158666     0.000000000000000
     0.000000000000007    -0.000000000000002    -0.138213647255426
1 117
    -0.029077360353389    -0.043898712596586    -0.000000000000000
     0.075127811247235    -0.064871486455998    -0.000000000000000
     0.000000000000007    -0.000000000000002     0.013280080601875
1 118
     0.007854134134197     0.018231570293281     0.000000000000000
    -0.068450783175745     0.103019531904176     0.000000000000000
     0.000000000000007    -0.000000000000002    -0.067942630185911
1 119
     0.120000775537099     0.047974895662074    -0.000000000000000
     0.189194685366651    -0.058503040716194    -0.000000000000000
     0.000000000000007    -0.000000000000002     0.000460787388112
1 120
    -0.080894002798262     0.014645525031191    -0.000000000000000
    -0.056908997377434     0.051733382905254    -0.000000000000000
     0.000000000000007    -0.000000000000002     0.026930671879088
1 121
    -0.004749409381686     0.041852581766540     0.000000000000000
    -0.026434173625724     0.082086143591117    -0.000000000000000
     0.000000000000007    -0.000000000000002     0.000998686135051
1 122
     0.013680290690319    -0.029478806554260    -0.000000000000000
     0.088202847788470    -0.055181557099369     0.000000000000000
    -0.000000000000000    -0.000000000000002    -0.006204643238293
1 123
    -0.001343340646349     0.002690830607424    -0.000000000000000
    -0.074714639885464     0.075577878998319    -0.000000000000000
     0.000000000000007    -0.000000000000002     0.003737079755831
1 124
     0.074475012898978     0.010467165090287    -0.000000000000000
     0.204366658805899    -0.064182212915948     0.000000000000000
     0.000000000000007    -0.000000000000002    -0.000447622034166
1 125
    -0.058970061052742    -0.095696683125142    -0.000000000000000
     0.254632077126331    -0.238683249393866     0.000000000000000
     0.000000000000007    -0.000000000000002    -0.035151495035977
1 126
    -0.002325690910501     0.131267202378746    -0.000000000000000
    -0.115936765916846     0.241562105088079    -0.000000000000000
     0.000000000000007    -0.000000000000002     0.005811563384760
1 127
     0.025987158202456    -0.015995608313980     0.000000000000000
     0.079859422909259    -0.072857705453762    -0.000000000000000
     0.000000000000007    -0.000000000000002     0.007940589194323
1 128
     0.110148746356678    -0.022415116877604    -0.000000000000000
    -0.182871924365266     0.090204024773479     0.000000000000000
     0.000000000000000    -0.000000000000002    -0.005736332790783
2 1
    -0.193188463538699    -0.119842064248387    -0.000000000000000
     0.142205070504969     0.407732866190903     0.000000000000000
    -0.000000000000000     0.000000000000003    -0.213504425708087
2 2
    29.761119186380952     1.964958304497165     0.000000000000000
     1.963662565873449    45.204360116505555    -0.000000000000015
     0.000000000000002    -0.000000000000032    10.859912393619084
2 3
    -0.193116887859473     0.144391484894213     0.000000000000000
    -0.122266626534517     0.407637416230406     0.000000000000000
    -0.000000000000000     0.000000000000003    -0.213560848653571
2 4
    -0.059263625070432    -0.019167240766639     0.000000000000000
    -0.020450881501032    -0.038998363824925    -0.000000000000000
    -0.000000000000000     0.000000000000004     0.009405705012034
2 5
    -0.001883788890933     0.067227716045179     0.000000000000000
    -0.043391657351575    -0.141267759862474     0.000000000000000
    -0.000000000000000     0.000000000000004    -0.001384242929186
2 6
     0.108591716001349     0.153410020476686     0.000000000000000
     0.073223313752507     0.163682955061974     0.000000000000000
    -0.000000000000000     0.000000000000003    -0.010154249422110
2 7
     0.008831297754934    -0.387180856807835     0.000000000000000
    -0.034610476501556    -0.434714924256388    -0.000000000000000
    -0.000000000000000     0.000000000000004     0.005143891863210
2 8
    -0.129632891036420     0.016177140833755     0.000000000000000
    -0.069339980373597     0.113115852065764    -0.000000000000000
     0.000000000000000    -0.000000000000000     0.004419797396177
2 9
    -0.007233292916562     0.031270791856621     0.000000000000000
    -0.000516859226050     0.081939729491539    -0.000000000000000
    -0.000000000000000     0.000000000000003     0.000421291326274
2 10
    -0.035921655013285    -0.035892609810122     0.000000000000000
    -0.035325623853228    -0.134564235147762     0.000000000000000
    -0.000000000000000     0.000000000000004    -0.002034987567091
2 11
    -0.007203210384714    -0.000271261450982     0.000000000000000
     0.030668218349761     0.082092436728418    -0.000000000000000
    -0.000000000000000     0.000000000000003     0.000394960618382
2 12
     0.048355595289260    -0.058147459405983    -0.000000000000000
    -0.057582536840202    -0.201122267061749    -0.000000000000000
    -0.000000000000000     0.000000000000004     0.000090276712773
2 13
     0.009188138822379    -0.034026974171169     0.000000000000000
    -0.386686467985074    -0.436390206320853    -0.000000000000000
     0.000000000000000     0.000000000000004     0.005160818746855
2 14
     0.108995755523936     0.075226038866508     0.000000000000000
     0.152701584497230     0.161963550013661     0.000000000000000
    -0.000000000000000     0.000000000000003    -0.010084661122681
2 15
    -0.001409729682147    -0.042591678454198    -0.000000000000000
     0.067854317448216    -0.143032804631636     0.000000000000000
    -0.000000000000000     0.000000000000004    -0.001269516273370
2 16
    -0.129173354429215    -0.067389539319953     0.000000000000000
     0.015605131359785     0.111304433260722    -0.000000000000000
    -0.000000000000000     0.000000000000003     0.004451770398617
2 17
    -0.066461648811724     0.076809002438958     0.000000000000000
    -0.032763930981079     0.028504067951391     0.000000000000000
     0.000000000000001    -0.000000000000000    -0.004327639918555
2 18
     0.132323202979500    -0.015772063982485    -0.000000000000000