 128  128
1 1
    14.970908381443305     2.136487062134828    -0.000000000000000
     2.146150275770033    55.457584830703723     0.000000000000000
     0.000000000000000     0.000000000000011     5.986736608495098
1 2
     0.294966746642999     0.274770918007379     0.000000000000000
    -0.130340264559713     0.002845425225854     0.000000000000000
     0.000000000000028    -0.000000000000004     0.133026974298094
1 3
     0.024613905071369     0.049090191241303     0.000000000000000
     0.047192951117687     0.070485145993523     0.000000000000000
     0.000000000000028     0.000000000000000     0.023583658180342
1 4
     0.296265971012488    -0.132085602199479     0.000000000000000
     0.273444289891678     0.000836175140905     0.000000000000000
     0.000000000000028    -0.000000000000007     0.133377201150303
1 5
     0.241154697983518     0.033962306075987    -0.000000000000000
     0.084924500422247    -0.044853242655091    -0.000000000000000
     0.000000000000014    -0.000000000000004    -0.150968374881458
1 6
    -0.022928328378590    -0.013210395138633     0.000000000000000
     0.083379179414074    -0.010316401873413     0.000000000000000
     0.000000000000028    -0.000000000000000     0.001921097292262
1 7
     0.081268548594963     0.041577728321775     0.000000000000000
     0.095722445615380     0.107810119033903     0.000000000000000
     0.000000000000014    -0.000000000000004     0.017575722546499
1 8
    -0.005611792980801    -0.024973753013643    -0.000000000000000
     0.092494962768477     0.092386889880181     0.000000000000000
     0.000000000000014    -0.000000000000004     0.012623617864167
1 9
    -0.032089669617179     0.073635796561590    -0.000000000000000
     0.069765673893251     0.268415018471249    -0.000000000000000
     0.000000000000028    -0.000000000000003    -0.102943517772350
1 10
     0.057414605679298     0.104252434233765     0.000000000000000
     0.106359835871309     0.204737242547500     0.000000000000000
     0.000000000000043    -0.000000000000003     0.133768631161595
1 11
     0.031736447770157     0.105506295335743    -0.000000000000000
     0.106325758826955     0.230404530024249    -0.000000000000000
     0.000000000000043    -0.000000000000003    -0.177964169673391
1 12
     0.055868176986863     0.105267755906586     0.000000000000000
     0.101985894014788     0.204129064283523     0.000000000000000
     0.000000000000014     0.000000000000000     0.133748029582053
1 13
     0.233319595195063     0.088437473960537    -0.000000000000000
     0.029195798178954    -0.042902614289562    -0.000000000000000
     0.000000000000028    -0.000000000000004    -0.150906570142833
1 14
    -0.007657727315490     0.092827516916363     0.000000000000000
    -0.023190633308076     0.094219336712485     0.000000000000000
     0.000000000000014    -0.000000000000004     0.012672546615578
1 15
     0.079844957514538     0.092464101076643     0.000000000000000
     0.042786043522192     0.107101885739689     0.000000000000000
     0.000000000000028    -0.000000000000004     0.017519068202759
1 16
    -0.031818509411380     0.083471980116855     0.000000000000000
    -0.015670029133915    -0.009285949418731     0.000000000000000
     0.000000000000028    -0.000000000000004     0.001954574859017
1 17
    -0.613052959027705     0.388542502623466     0.000000000000000
    -0.155587809785558     0.421778262866489     0.000000000000000
    -0.000000000000014     0.000000000000029     0.136518942030409
1 18
    -0.110407567025419     0.014948980593452     0.000000000000000
    -0.180333234409638     0.135863271989976     0.000000000000000
    -0.000000000000014     0.000000000000014     0.010385771286451
1 19
     0.205206602129770     0.191800992030949    -0.000000000000000
     0.153912786994539     0.182935414857376    -0.000000000000000
    -0.000000000000014     0.000000000000014    -0.089511287911173
1 20
    -4.650809366661726     7.945506787579154    -0.000000000000000
     8.825771302495006    -9.689266720649890    -0.000000000000000
    -0.000000000000026     0.000000000000011    -3.392652667739806
1 21
    -0.089649539692438    -0.016098862969898    -0.000000000000000
    -0.181981587739962     0.055120860549437    -0.000000000000000
    -0.000000000000028     0.000000000000014    -0.006700663745933
1 22
    -0.122235656754064     0.055881938877000     0.000000000000000
    -0.171308933383109     0.041919924768180     0.000000000000000
    -0.000000000000028     0.000000000000014     0.008822626438726
1 23
    -0.099431695086402     0.007352926933784     0.000000000000000
    -0.123658984637252     0.061395270598041     0.000000000000000
    -0.000000000000028     0.000000000000028     0.002121962692793
1 24
    -0.101748279927257     0.233815532939872     0.000000000000000
     0.023991247826046     0.117614854810256     0.000000000000000
    -0.000000000000014     0.000000000000028     0.025288438887417
1 25
    -0.099693680698763     0.033241590792166     0.000000000000000
    -0.288413289758552     0.081647610951102     0.000000000000000
    -0.000000000000028     0.000000000000028     0.075283322040197
1 26
    -0.110780157458557     0.017511240658337    -0.000000000000000
    -0.307905390582818     0.103937937648595    -0.000000000000000
    -0.000000000000014     0.000000000000028    -0.073851512262050
1 27
    -0.103373202363471     0.048058559180163     0.000000000000000
    -0.268630710771035     0.115260510874535     0.000000000000000
    -0.000000000000028     0.000000000000028     0.047983653950024
1 28
    -0.063875048552291    -0.033160548550214    -0.000000000000000
    -0.215345868074785     0.043743974003178    -0.000000000000000
    -0.000000000000028     0.000000000000014    -0.023223130538363
1 29
    -0.117690155409583    -0.020787080212166     0.000000000000000
     0.017351240417682    -0.039115676076825     0.000000000000000
    -0.000000000000028     0.000000000000014     0.030959023656265
1 30
    -0.087692802793882     0.028706283440378     0.000000000000000
    -0.091179129932854     0.028490322116461     0.000000000000000
    -0.000000000000043     0.000000000000014     0.012445929240620
1 31
     0.037227441937489    -0.103823776840777    -0.000000000000000
    -0.076350516969470     0.039681770834370    -0.000000000000000
    -0.000000000000028     0.000000000000014    -0.007133296916308
1 32
    -0.131255811193782     0.127986597735209    -0.000000000000000
     0.302098580559750    -0.317702807450878    -0.000000000000000
    -0.000000000000028     0.000000000000028    -0.157733418563458
1 33
    -5.619026638018550    -9.743575209191505    -0.000000000000000
   -12.045960754560888   -21.771403677886667    -0.000000000000000
     0.000000000000025    -0.000000000000034    -1.889860147281922
1 34
     0.477244510694540    -0.424008932322195    -0.000000000000000
     0.423922783313525     0.289150542632214    -0.000000000000000
     0.000000000000014    -0.000000000000028    -0.106149638588525
1 35
     0.087831950794211    -0.032915892725427    -0.000000000000000
     0.174256611312295    -0.001989630331664    -0.000000000000000
     0.000000000000014    -0.000000000000028    -0.006002785238958
1 36
    -0.531984212689636    -0.031702807594243    -0.000000000000000
    -0.522304912109103     0.069862160875530    -0.000000000000000
     0.000000000000014    -0.000000000000028    -0.034044110192632
1 37
    -0.063927547614703    -0.206181147831785     0.000000000000000
    -0.092011898975677     0.029952645379410     0.000000000000000
     0.000000000000014    -0.000000000000028     0.004630205001993
1 38
     0.137218787223055     0.012591110082184    -0.000000000000000
     0.190380002893264    -0.105627900715476    -0.000000000000000
     0.000000000000000    -0.000000000000028    -0.008699016961476
1 39
     0.099986757988869    -0.096481553599304    -0.000000000000000
     0.140401362727516    -0.197683724180735    -0.000000000000000
     0.000000000000000    -0.000000000000028    -0.019386086348724
1 40
     0.129169610587926     0.009057872212708     0.000000000000000
     0.058679172562428    -0.150403148116936     0.000000000000000
     0.000000000000000    -0.000000000000028     0.012391850094323
1 41
     0.088236142604728    -0.050324174057508     0.000000000000000
     0.137595514492507    -0.344880512869281     0.000000000000000
     0.000000000000014    -0.000000000000029     0.137245147709254
1 42
     0.072416085335149    -0.153469030984525    -0.000000000000000
     0.245327220029651    -0.290413952189056    -0.000000000000000
     0.000000000000014    -0.000000000000028    -0.139941379431772
1 43
     0.092940670235315    -0.122186725589117     0.000000000000000
     0.247174125657793    -0.289305508455882     0.000000000000000
     0.000000000000014    -0.000000000000057     0.176334069692156
1 44
     0.062328619859855    -0.141455410588762    -0.000000000000000
     0.191704417168207    -0.270464937153946    -0.000000000000000
     0.000000000000028    -0.000000000000028    -0.164341375201453
1 45
    -0.161176708864250    -0.371135240690663    -0.000000000000000
    -0.333579007568833    -0.460268102524054    -0.000000000000000
     0.000000000000014    -0.000000000000057    -0.054040518335279
1 46
     0.159844354018489    -0.042586933598969    -0.000000000000000
     0.076757888299106    -0.087908005295475    -0.000000000000000
     0.000000000000000    -0.000000000000028    -0.016640925874795
1 47
     0.036821721028048    -0.155091404922572    -0.000000000000000
     0.080575870514558    -0.096914626792554    -0.000000000000000
     0.000000000000028    -0.000000000000028    -0.029867139940556
1 48
    -0.069032699158356    -0.092282138306970     0.000000000000000
     0.112489974495272     0.203304484360743     0.000000000000000
     0.000000000000028    -0.000000000000028     0.008405444453007
1 49
    -3.376153538978066     0.541950879351431    -0.000000000000000
     1.235458625547082   -18.445058143408886    -0.000000000000000
    -0.000000000000014     0.000000000000023    -3.771647050580945
1 50
    -0.213382693973998    -0.016065732493630    -0.000000000000000
    -0.111010078983050    -0.091508942449117    -0.000000000000000
    -0.000000000000014     0.000000000000057    -0.069584410099479
1 51
    -0.005929845553002     0.013910722437046    -0.000000000000000
    -0.093276115874982    -0.082089100638960    -0.000000000000000
    -0.000000000000014     0.000000000000028    -0.045714905002996
1 52
    -0.042773483665368     0.082223216011215    -0.000000000000000
     0.020630179660788    -0.168022068819255    -0.000000000000000
     0.000000000000000     0.000000000000028    -0.107743685805563
1 53
    -0.430372022564910    -0.007106232310477    -0.000000000000000
    -0.083818708075675    -0.583713305752340    -0.000000000000000
    -0.000000000000000     0.000000000000028    -0.274763266347435
1 54
     0.116430687611633    -0.031162016281584     0.000000000000000
     0.237008736933827     0.022355919283008     0.000000000000000
    -0.000000000000028     0.000000000000057     0.094079688174541
1 55
    -0.003364527290305     0.035212089580867    -0.000000000000000
     0.037863722089732     0.067769060680860     0.000000000000000
    -0.000000000000028     0.000000000000028     0.019362909571740
1 56
     0.024274445114493     0.096054935004872    -0.000000000000000
     0.135691755686597     0.065430373416113    -0.000000000000000
    -0.000000000000028     0.000000000000028    -0.016926772790936
1 57
     0.027389729283311    -0.019332397454036    -0.000000000000000
    -0.040611124190058    -0.051253667119269     0.000000000000000
    -0.000000000000000     0.000000000000057     0.040142177736971
1 58
    -0.055025643490296    -0.022920682884077    -0.000000000000000
    -0.083377792194746     0.039514532902452    -0.000000000000000
    -0.000000000000028     0.000000000000028    -0.136575596374149
1 59
    -0.038098008913973    -0.045833210573974    -0.000000000000000
    -0.109615928838942     0.003834084353514     0.000000000000000
    -0.000000000000028     0.000000000000028     0.152467139793115
1 60
    -0.041099630064188    -0.052168777036385    -0.000000000000000
    -0.049475665918276    -0.037158927420215    -0.000000000000000
    -0.000000000000014     0.000000000000028    -0.072108103593335
1 61
    -0.120119893569392    -0.015143176154368    -0.000000000000000
    -0.089148064989701     0.035166855419810     0.000000000000000
    -0.000000000000014     0.000000000000000     0.188728494983921
1 62
    -0.033353724711858    -0.019695303594105     0.000000000000000
    -0.094922163999954    -0.127249497976301     0.000000000000000
    -0.000000000000028     0.000000000000028     0.054050819125050
1 63
    -0.054874772398350    -0.037489427549858    -0.000000000000000
    -0.078557875867276    -0.143674517924381    -0.000000000000000
    -0.000000000000028    -0.000000000000000    -0.066190299869987
1 64
    -0.006593984177343    -0.029226177068040    -0.000000000000000
     0.036091150394711    -0.218736299582964     0.000000000000000
    -0.000000000000014     0.000000000000057     0.003067060154268
1 65
     0.675920331401699     0.161390782710935    -0.000000000000000
     1.741481657744876     0.523472499615195    -0.000000000000000
     0.000000000000002    -0.000000000000014    -0.649001259511889
1 66
     0.134912396374911     0.066413352734351    -0.000000000000000
     0.336786505925605     0.110142709168922     0.000000000000000
     0.000000000000002    -0.000000000000021     0.021471996277320
1 67
    -0.015198733414574    -0.041036427309461     0.000000000000000
     0.007208459923963     0.028997918749244     0.000000000000000
     0.000000000000002    -0.000000000000014     0.097960510720706
1 68
    -0.674210798826078    -0.751880358298660     0.000000000000000
    -1.331787158000557    -0.297063125724023     0.000000000000000
     0.000000000000003    -0.000000000000014     0.606461572955755
1 69
    -0.005928826153738     0.003428749444307     0.000000000000000
    -0.007098258990669     0.027503089927503     0.000000000000000
     0.000000000000002    -0.000000000000014     0.015894118616409
1 70
     0.023356985771584     0.015818018471045     0.000000000000000
    -0.004187246656331     0.011017180404277     0.000000000000000
     0.000000000000004    -0.000000000000014     0.002382057634507
1 71
     0.043199592560185     0.013438740575090    -0.000000000000000
     0.041899022900920     0.016255706377461    -0.000000000000000
     0.000000000000002    -0.000000000000014    -0.003826743399868
1 72
     0.068788043333580    -0.009653201386314    -0.000000000000000
    -0.025279778217480    -0.081297521448743    -0.000000000000000
     0.000000000000002    -0.000000000000014    -0.003561498063269
1 73
     0.020890549238060     0.008761227025158     0.000000000000000
     0.114655679685872     0.014944407802322     0.000000000000000
     0.000000000000004    -0.000000000000014     0.004473117957988
1 74
     0.033160548550211     0.009344833107175     0.000000000000000
     0.192293782268442     0.056120841076623     0.000000000000000
     0.000000000000004    -0.000000000000014     0.003195820026404
1 75
     0.043131292809102    -0.002194766628094    -0.000000000000000
     0.222422886063926     0.079703479163285    -0.000000000000000
     0.000000000000000    -0.000000000000014    -0.013383301109766
1 76
     0.043095104135021     0.014649277208100    -0.000000000000000
     0.022828457713120    -0.079110011416390     0.000000000000000
     0.000000000000002    -0.000000000000014     0.011063048213884
1 77
     0.056551684197336     0.025670002714989     0.000000000000000
     0.014447579132346    -0.015068041012647     0.000000000000000
     0.000000000000002    -0.000000000000021     0.023593958970113
1 78
     0.006168384982165     0.040941623177357    -0.000000000000000
     0.029736395260699    -0.006044759371644    -0.000000000000000
     0.000000000000002    -0.000000000000014    -0.013676873618235
1 79
    -0.036725897496687     0.031485675549767     0.000000000000000
     0.073847134154390     0.000365549706121     0.000000000000000
     0.000000000000002    -0.000000000000014     0.019607553328797
1 80
     0.023420698225952    -0.400614738477255     0.000000000000000
     0.637661380881968     0.720313008080154     0.000000000000000
     0.000000000000002    -0.000000000000014     0.027909989884096
1 81
    -0.341910592721530    -0.480203317075430    -0.000000000000000
    -0.734946343841489    -1.031784650142132    -0.000000000000000
    -0.000000000000001    -0.000000000000004    -0.483665858097549
1 82
    -0.152564823832135    -0.134807907949748     0.000000000000000
    -0.221092461210708    -0.310105520128149     0.000000000000000
    -0.000000000000001    -0.000000000000007     0.049384561358858
1 83
     0.026442707361570    -0.014276686774945    -0.000000000000000
    -0.018373759272025    -0.153957691043891    -0.000000000000000
    -0.000000000000001    -0.000000000000007    -0.052330587233319
1 84
     0.592036004280172     0.755297384651366     0.000000000000000
     0.397359729225588     0.403803637385462     0.000000000000000
    -0.000000000000003    -0.000000000000011     0.524863866786031
1 85
    -0.015657972785664     0.030671175533113     0.000000000000000
    -0.025696147020432    -0.008555471605439     0.000000000000000
    -0.000000000000000    -0.000000000000004     0.026506507277819
1 86
    -0.048841457819448    -0.007964566495728    -0.000000000000000
    -0.060343624415292     0.005835987562399    -0.000000000000000
    -0.000000000000000    -0.000000000000004    -0.023985388981405
1 87
    -0.063104382704253    -0.000675352016307     0.000000000000000
    -0.091043413367879    -0.047117836599524     0.000000000000000
    -0.000000000000001    -0.000000000000004     0.022921832437566
1 88
    -0.067329282978353    -0.073153111007290    -0.000000000000000
     0.033439499205953     0.046992832575809    -0.000000000000000
    -0.000000000000000    -0.000000000000007    -0.028679973919466
1 89
    -0.054264661935315    -0.004573025124770    -0.000000000000000
    -0.202323852958389    -0.023207859969560    -0.000000000000000
    -0.000000000000001    -0.000000000000004    -0.067155998911003
1 90
    -0.059081323485592    -0.000895542258608     0.000000000000000
    -0.280324027460426    -0.088892041083058     0.000000000000000
    -0.000000000000001    -0.000000000000011     0.064531872716881
1 91
    -0.051633082720069    -0.025496195139468    -0.000000000000000
    -0.310030516289546    -0.170217853446001    -0.000000000000000
    -0.000000000000001    -0.000000000000007    -0.049629205115916
1 92
    -0.036040861187314     0.018561731605976    -0.000000000000000
     0.011105900121722     0.069851988025224     0.000000000000000
    -0.000000000000001    -0.000000000000011     0.045163812750256
1 93
    -0.084348153789333     0.007701051784460    -0.000000000000000
     0.080881199543053     0.175291507547177    -0.000000000000000
    -0.000000000000001    -0.000000000000004    -0.026859309327470
1 94
    -0.065578974431935    -0.043869337880512     0.000000000000000
    -0.039685362579393     0.064242889807131     0.000000000000000
    -0.000000000000001    -0.000000000000007     0.008755671305216
1 95
     0.040606240817561    -0.007620519242138     0.000000000000000
    -0.056068182822126    -0.017103810223938     0.000000000000000
    -0.000000000000001    -0.000000000000004     0.020841072903856
1 96
     0.377245010214803    -0.966198860802431     0.000000000000000
    -0.733557576170572    -2.182164924963542     0.000000000000000
    -0.000000000000001    -0.000000000000004     0.921101771703561
1 97
    -1.334547063889179    -1.186780042720834     0.000000000000000
    -0.429261407765079    -2.227885222460344     0.000000000000000
    -0.000000000000014     0.000000000000028     0.628155036213148
1 98
    -0.169720803844911     0.196585542504224    -0.000000000000000
    -0.318885896267673    -0.015871394343989    -0.000000000000000
    -0.000000000000007     0.000000000000014    -0.006121244321323
1 99
     0.007990561177113    -0.032085592020110    -0.000000000000000
     0.018865417396910    -0.068360303290028    -0.000000000000000
    -0.000000000000014     0.000000000000043    -0.019795542742115
1 100
     0.159021189108049     0.101810972982356    -0.000000000000000
     0.442061433449211    -0.307380871218847    -0.000000000000000
    -0.000000000000014     0.000000000000028    -0.065294131159924
1 101
    -0.015331255319655     0.026891243040318     0.000000000000000
     0.039087211137542    -0.077225174890145     0.000000000000000
    -0.000000000000014     0.000000000000028     0.003108263313352
1 102
    -0.033645272903051     0.030990247504583    -0.000000000000000
    -0.017974298657535     0.067749247371552    -0.000000000000000
    -0.000000000000014     0.000000000000014    -0.001784611827798
1 103
    -0.051439906558425     0.066514273262072    -0.000000000000000
    -0.060999252868115     0.148810188041679    -0.000000000000000
    -0.000000000000021     0.000000000000043    -0.023138149022753
1 104
    -0.081227772624167     0.035803850857057     0.000000000000000
     0.032992959842815     0.071936368994827     0.000000000000000
    -0.000000000000007     0.000000000000014     0.027817282776158
1 105
    -0.039077141912706     0.068773771743800    -0.000000000000000
    -0.190826057299198     0.348668920528354    -0.000000000000000
    -0.000000000000007     0.000000000000029    -0.036243328808707
1 106
    -0.053127012350107     0.117176378177547     0.000000000000000
    -0.230121023293695     0.293281749251037     0.000000000000000
    -0.000000000000014     0.000000000000028     0.008487850771174
1 107
    -0.057113373195051     0.110907582367304     0.000000000000000
    -0.245036572311001     0.302468929932779     0.000000000000000
    -0.000000000000014     0.000000000000029     0.010568610304884
1 108
    -0.043695020605355     0.105804469622186     0.000000000000000
    -0.049462338624810     0.195030849261002     0.000000000000000
    -0.000000000000014     0.000000000000014     0.003388959834607
1 109
     0.187783539508278     0.421104663802247    -0.000000000000000
    -0.422750969714755     0.502357042300382    -0.000000000000000
    -0.000000000000021     0.000000000000029    -0.144672017134031
1 110
     0.005700990416916     0.019373173424803     0.000000000000000
    -0.158912325302957     0.180422932574324     0.000000000000000
    -0.000000000000014     0.000000000000028     0.007998563257059
1 111
     0.050291553280882     0.051599442544159     0.000000000000000
    -0.130027373801024     0.136326803788435     0.000000000000000
    -0.000000000000007     0.000000000000028     0.003960653666889
1 112
     0.207416659746912    -0.012752175166817    -0.000000000000000
    -0.243362001462298    -0.038753591190279    -0.000000000000000
    -0.000000000000014     0.000000000000028    -0.000821487984225
1 113
    -0.187526650892259    -0.091522176151251     0.000000000000000
    -0.506816615221354    -0.155206078054988     0.000000000000000
     0.000000000000014    -0.000000000000028     0.858377687591462
1 114
     0.209915207357437     0.058227576597055     0.000000000000000
     0.278409917424376     0.224424073177858     0.000000000000000
     0.000000000000000    -0.000000000000028     0.134134309198459
1 115
    -0.022242272669946     0.021791698192658    -0.000000000000000
    -0.051353404742724     0.096963103836949    -0.000000000000000
     0.000000000000014    -0.000000000000014    -0.078757263390414
1 116
    -0.177934103762503     0.147777724860688     0.000000000000000
    -0.525733216698331     0.415723701520463     0.000000000000000
     0.000000000000014    -0.000000000000028     0.026980343607277
1 117
     0.028414225549557     0.039312113444424    -0.000000000000000
    -0.022083478401974     0.062657154506056     0.000000000000000
    -0.000000000000000    -0.000000000000028     0.006291207352542
1 118
     0.047065664291281    -0.040941113477722     0.000000000000000
     0.050962581716298    -0.041367548503352     0.000000000000000
     0.000000000000014    -0.000000000000014     0.032836342592001
1 119
     0.075566538778773    -0.045874496244394    -0.000000000000000
     0.137619982657718    -0.117638127698214    -0.000000000000000
     0.000000000000000    -0.000000000000014    -0.015888968221524
1 120
     0.077366288189786    -0.047500947779518    -0.000000000000000
     0.053744291822660     0.000900407303405    -0.000000000000000
     0.000000000000014    -0.000000000000014    -0.024217156751249
1 121
     0.086541901018155    -0.084909842787049    -0.000000000000000
     0.257838608162697    -0.283218776995476    -0.000000000000000
     0.000000000000028    -0.000000000000028    -0.103278293439903
1 122
     0.113565156263935    -0.075198535642343    -0.000000000000000
     0.343006767263411    -0.229726366749446    -0.000000000000000
     0.000000000000029    -0.000000000000028    -0.009620937645966
1 123
     0.106914595427106    -0.078484059489234    -0.000000000000000
     0.364467714369518    -0.212200320324740    -0.000000000000000
     0.000000000000014    -0.000000000000028    -0.002580347837596
1 124
     0.084566305233089    -0.055198431666540     0.000000000000000
     0.224708770938953    -0.026736096541548     0.000000000000000
     0.000000000000028    -0.000000000000028     0.039972214705752
1 125
    -0.367578556637980     1.123808691621306     0.000000000000000
     0.748448081674372    -1.567884407788640     0.000000000000000
     0.000000000000029    -0.000000000000029     1.095313878702923
1 126
     0.075143488081768    -0.088119421388321     0.000000000000000
     0.262209530337426    -0.253810542584638     0.000000000000000
     0.000000000000014    -0.000000000000014     0.016434910079378
1 127
     0.031163035680834    -0.009054304315249     0.000000000000000
     0.200793478199945    -0.159101597582151     0.000000000000000
     0.000000000000014    -0.000000000000028     0.015798836311029
1 128
    -0.110567612710796     0.003285014147252     0.000000000000000
     0.004875360365752    -0.036038656416409     0.000000000000000
     0.000000000000014    -0.000000000000028     0.024842929729828
2 1
     0.296265971012488    -0.132085602199479     0.000000000000000
     0.273444289891678     0.000836175140905     0.000000000000000
     0.000000000000028    -0.000000000000007     0.133377201150303
2 2
    14.970908381443305     2.136487062134828     0.000000000000000
     2.146150275770033    55.457584830703723     0.000000000000000
     0.000000000000000     0.000000000000011     5.986736608495098
2 3
     0.294966746642999     0.274770918007379     0.000000000000000
    -0.130340264559713     0.002845425225854     0.000000000000000
     0.000000000000028    -0.000000000000004     0.133026974298094
2 4
     0.024613905071369     0.049090191241303     0.000000000000000
     0.047192951117687     0.070485145993523     0.000000000000000
     0.000000000000028     0.000000000000000     0.023583658180342
2 5
    -0.005611792980801    -0.024973753013643     0.000000000000000
     0.092494962768477     0.092386889880181     0.000000000000000
     0.000000000000014    -0.000000000000004     0.012623617864167
2 6
     0.241154697983518     0.033962306075987    -0.000000000000000
     0.084924500422247    -0.044853242655091    -0.000000000000000
     0.000000000000014    -0.000000000000004    -0.150968374881458
2 7
    -0.022928328378590    -0.013210395138633     0.000000000000000
     0.083379179414074    -0.010316401873413     0.000000000000000
     0.000000000000028    -0.000000000000000     0.001921097292262
2 8
     0.081268548594963     0.041577728321775     0.000000000000000
     0.095722445615380     0.107810119033903     0.000000000000000
     0.000000000000014    -0.000000000000004     0.017575722546499
2 9
     0.055868176986863     0.105267755906586     0.000000000000000
     0.101985894014788     0.204129064283523     0.000000000000000
     0.000000000000014     0.000000000000000     0.133748029582053
2 10
    -0.032089669617179     0.073635796561590    -0.000000000000000
     0.069765673893251     0.268415018471249    -0.000000000000000
     0.000000000000028    -0.000000000000003    -0.102943517772350
2 11
     0.057414605679298     0.104252434233765     0.000000000000000
     0.106359835871309     0.204737242547500     0.000000000000000
     0.000000000000043    -0.000000000000003     0.133768631161595
2 12
     0.031736447770157     0.105506295335743    -0.000000000000000
     0.106325758826955     0.230404530024249    -0.000000000000000
     0.000000000000043    -0.000000000000003    -0.177964169673391
2 13
    -0.031818509411380     0.083471980116855     0.000000000000000
    -0.015670029133915    -0.009285949418731     0.000000000000000
     0.000000000000028    -0.000000000000004     0.001954574859017
2 14
     0.233319595195063     0.088437473960537    -0.000000000000000
     0.029195798178954    -0.042902614289562    -0.000000000000000
     0.000000000000028    -0.000000000000004    -0.150906570142833
2 15
    -0.007657727315490     0.092827516916363     0.000000000000000
    -0.023190633308076     0.094219336712485     0.000000000000000
     0.000000000000014    -0.000000000000004     0.012672546615578
2 16
     0.079844957514538     0.092464101076643     0.000000000000000
     0.042786043522192     0.107101885739689     0.000000000000000
     0.000000000000028    -0.000000000000004     0.017519068202759
2 17
    -4.650809366661726     7.945506787579154    -0.000000000000000
     8.825771302495006    -9.689266720649890    -0.000000000000000
    -0.000000000000026     0.000000000000011    -3.392652667739806
2 18
    -0.613052959027705     0.388542502623466     0.000000000000000