  64   64
1 1
    30.470193327583210    -0.000000000000000    -0.000000000000000
    -0.000000000000002    34.104747818836728    -0.000000000000000
     0.000000000000002    -0.000000000000008     8.291358860149748
1 2
    -2.800997208420790     0.124561910453036    -0.000000000000000
    -0.124503878279120    -5.036988915431849    -0.000000000000000
    -0.000000000000000    -0.000000000000014     1.067672023852472
1 3
    -0.185635018672897    -0.000000000000000    -0.000000000000000
     0.000000000000000    -3.266704383393241    -0.000000000000000
    -0.000000000000000    -0.000000000000014     1.073722257832192
1 4
    -2.800997208420789    -0.124561910453032    -0.000000000000000
     0.124503878279120    -5.036988915431849    -0.000000000000000
    -0.000000000000000    -0.000000000000014     1.067672023852472
1 5
    -0.231839493528229    -0.000000000000000    -0.000000000000000
     0.000000000000000    -0.235213351193376    -0.000000000000000
    -0.000000000000000    -0.000000000000014     0.048920934807508
1 6
    -0.322850214789164    -0.194007081967360    -0.000000000000000
    -0.307076566745505     0.446083889660743    -0.000000000000000
    -0.000000000000000    -0.000000000000014     0.020866031347367
1 7
     0.200584419922374    -0.000000000000000    -0.000000000000000
    -0.000000000000000     0.755103073396597     0.000000000000000
    -0.000000000000000    -0.000000000000014    -0.101598325326699
1 8
    -0.322850214789164     0.194007081967360    -0.000000000000000
     0.307076566745505     0.446083889660748    -0.000000000000000
     0.000000000000000    -0.000000000000014     0.020866031347367
1 9
     0.254067444824725    -0.000000000000000    -0.000000000000000
    -0.000000000000000    -2.266307320405780     0.000000000000000
     0.000000000000000    -0.000000000000011    -0.994758678423178
1 10
    -0.147877081395548     0.032723580604827    -0.000000000000000
    -0.032937596768282    -2.211685808178722     0.000000000000000
    -0.000000000000000    -0.000000000000014    -0.005130622417715
1 11
     0.403193281636179    -0.000000000000000    -0.000000000000000
    -0.000000000000000    -1.803546236218878    -0.000000000000000
     0.000000000000000    -0.000000000000018     1.016988375202621
1 12
    -0.147877081395548    -0.032723580604827    -0.000000000000000
     0.032937596768282    -2.211685808178723    -0.000000000000000
    -0.000000000000000    -0.000000000000018    -0.005130622417715
1 13
    -0.233782118501148    -0.000000000000000    -0.000000000000000
     0.000000000000000    -0.252299228077286    -0.000000000000000
    -0.000000000000000    -0.000000000000014     0.049295980305879
1 14
    -0.321879951236276     0.307334913878304    -0.000000000000000
     0.194948725648492     0.438198144889750    -0.000000000000000
    -0.000000000000000    -0.000000000000014     0.020786521701712
1 15
     0.198373267955359    -0.000000000000000    -0.000000000000000
    -0.000000000000000     0.742312561052241     0.000000000000000
     0.000000000000000    -0.000000000000018    -0.101898361725395
1 16
    -0.321879951236276    -0.307334913878304    -0.000000000000000
    -0.194948725648492     0.438198144889750    -0.000000000000000
    -0.000000000000000    -0.000000000000014     0.020786521701712
1 17
    -9.163938910719214    -5.508644573718009    -0.000000000000000
    -6.722052604013060    -4.463767738564570     0.000000000000000
    -0.000000000000001    -0.000000000000028    -3.080497708331585
1 18
    -9.163938910719214     5.508644573718009    -0.000000000000000
     6.722052604013061    -4.463767738564570     0.000000000000000
    -0.000000000000000    -0.000000000000028    -3.080497708331585
1 19
     0.200246138845826     0.017247090236076    -0.000000000000000
     1.030779453689122     2.395689898638000     0.000000000000000
     0.000000000000000    -0.000000000000021    -1.196063599582792
1 20
     0.200246138845826    -0.017247090236076    -0.000000000000000
    -1.030779453689122     2.395689898637997     0.000000000000000
    -0.000000000000000    -0.000000000000028    -1.196063599582792
1 21
     0.173054109426039    -0.143188872801353    -0.000000000000000
     0.348773173563731     1.436718049577756    -0.000000000000000
     0.000000000000000    -0.000000000000021     0.346894583263233
1 22
     0.173054109426039     0.143188872801353    -0.000000000000000
    -0.348773173563731     1.436718049577753    -0.000000000000000
    -0.000000000000000    -0.000000000000028     0.346894583263233
1 23
     0.220734958282118     0.029339196438997    -0.000000000000000
    -0.159006980464549     0.146744192610491    -0.000000000000000
    -0.000000000000000    -0.000000000000028     0.021527611606493
1 24
     0.220734958282118    -0.029339196438997    -0.000000000000000
     0.159006980464549     0.146744192610495    -0.000000000000000
     0.000000000000000    -0.000000000000028     0.021527611606493
1 25
     0.011914311962685    -0.148053302235425    -0.000000000000000
    -0.108235366110697     0.990898891082828    -0.000000000000000
    -0.000000000000000    -0.000000000000028     0.612129760075160
1 26
     0.011914311962685     0.148053302235425    -0.000000000000000
     0.108235366110697     0.990898891082832    -0.000000000000000
     0.000000000000000    -0.000000000000028     0.612129760075160
1 27
    -0.239618384888468    -0.191837887343169    -0.000000000000000
    -0.136312799900305     0.882100174734138     0.000000000000000
    -0.000000000000000    -0.000000000000036    -0.604993394332157
1 28
    -0.239618384888468     0.191837887343169    -0.000000000000000
     0.136312799900305     0.882100174734141     0.000000000000000
    -0.000000000000000    -0.000000000000021    -0.604993394332158
1 29
     0.083729024413203    -0.068319665792970    -0.000000000000000
     0.326883323904838     0.426862205756301     0.000000000000000
     0.000000000000000    -0.000000000000036    -0.158752258914445
1 30
     0.083729024413203     0.068319665792970    -0.000000000000000
    -0.326883323904838     0.426862205756297     0.000000000000000
    -0.000000000000000    -0.000000000000028    -0.158752258914445
1 31
     0.154586060513682    -0.208730438032347    -0.000000000000000
    -0.080780369165021     0.329586825766750    -0.000000000000000
    -0.000000000000000    -0.000000000000021     0.149374621273178
1 32
     0.154586060513682     0.208730438032347    -0.000000000000000
     0.080780369165020     0.329586825766750    -0.000000000000000
     0.000000000000000    -0.000000000000021     0.149374621273178
1 33
    -1.113860985315561     1.897775720236240    -0.000000000000000
     0.729553619492437    -2.100514938385736    -0.000000000000000
    -0.000000000000000     0.000000000000036     0.540035514014308
1 34
    -1.113860985315561    -1.897775720236240    -0.000000000000000
    -0.729553619492437    -2.100514938385739    -0.000000000000000
    -0.000000000000000     0.000000000000036     0.540035514014308
1 35
     0.528870208474855     0.019508066547701    -0.000000000000000
    -0.384166629801391    -0.299462504505740    -0.000000000000000
    -0.000000000000000     0.000000000000028    -0.018236212312789
1 36
     0.528870208474855    -0.019508066547701    -0.000000000000000
     0.384166629801391    -0.299462504505733     0.000000000000000
     0.000000000000000     0.000000000000036    -0.018236212312789
1 37
     0.049268409815318     0.028679417223032    -0.000000000000000
     0.123952692930585     0.675166136567320    -0.000000000000000
     0.000000000000000     0.000000000000021     0.142767819773875
1 38
     0.049268409815318    -0.028679417223032    -0.000000000000000
    -0.123952692930585     0.675166136567327    -0.000000000000000
    -0.000000000000000     0.000000000000036     0.142767819773875
1 39
     0.090651985979759     0.095846305021823    -0.000000000000000
    -0.178075444689874     0.741229885890490     0.000000000000000
    -0.000000000000000     0.000000000000028    -0.142824826689628
1 40
     0.090651985979759    -0.095846305021823    -0.000000000000000
     0.178075444689874     0.741229885890490     0.000000000000000
     0.000000000000000     0.000000000000028    -0.142824826689628
1 41
    -0.106787731097686     0.074816235863047    -0.000000000000000
    -0.075625062796879    -0.759827684749879    -0.000000000000000
    -0.000000000000000     0.000000000000036     0.034826724978727
1 42
    -0.106787731097686    -0.074816235863047    -0.000000000000000
     0.075625062796879    -0.759827684749887    -0.000000000000000
    -0.000000000000000     0.000000000000021     0.034826724978727
1 43
     0.128216395013316     0.181816376008790    -0.000000000000000
    -0.151784801449458    -0.843980624697000     0.000000000000000
    -0.000000000000000     0.000000000000021    -0.041594045951333
1 44
     0.128216395013316    -0.181816376008790    -0.000000000000000
     0.151784801449458    -0.843980624697000     0.000000000000000
     0.000000000000000     0.000000000000021    -0.041594045951333
1 45
    -1.276451457907180    -2.973811636525923    -0.000000000000000
    -2.197851432462786    -0.935495639887982    -0.000000000000000
    -0.000000000000000     0.000000000000028     0.565649621371051
1 46
    -1.276451457907180     2.973811636525923    -0.000000000000000
     2.197851432462786    -0.935495639887986    -0.000000000000000
     0.000000000000000     0.000000000000028     0.565649621371051
1 47
    -0.460496522602985    -0.142541680788227    -0.000000000000000
    -0.172019646861620     1.355199966759184     0.000000000000000
    -0.000000000000000     0.000000000000021    -0.334564587458789
1 48
    -0.460496522602985     0.142541680788227    -0.000000000000000
     0.172019646861620     1.355199966759177     0.000000000000000
    -0.000000000000000     0.000000000000021    -0.334564587458789
1 49
    -4.189208867017513    -0.000000000000000    -0.000000000000000
     0.000000000000000   -15.158239506729114     0.000000000000000
    -0.000000000000000     0.000000000000011    -5.274651890545083
1 50
     0.262499821799504    -1.349100597013187    -0.000000000000000
    -0.358735059468886     1.111292195286063     0.000000000000000
    -0.000000000000000     0.000000000000014    -0.255632511871638
1 51
    -0.475251871141884    -0.000000000000000    -0.000000000000000
     0.000000000000000    -0.779388247717806    -0.000000000000000
    -0.000000000000000     0.000000000000014     0.159802386309884
1 52
     0.262499821799504     1.349100597013187    -0.000000000000000
     0.358735059468886     1.111292195286065     0.000000000000000
     0.000000000000000     0.000000000000014    -0.255632511871637
1 53
     0.106751018422712    -0.000000000000000    -0.000000000000000
    -0.000000000000000    -0.021274653820594     0.000000000000000
     0.000000000000000     0.000000000000018    -0.139702947961188
1 54
    -0.113964534588348    -0.045674238935341    -0.000000000000000
     0.073382088893015    -0.550298759805592     0.000000000000000
    -0.000000000000000     0.000000000000014    -0.029508579811827
1 55
     0.087788397331774    -0.000000000000000    -0.000000000000000
    -0.000000000000000    -0.833240475506766    -0.000000000000000
     0.000000000000000     0.000000000000018     0.100827231782048
1 56
    -0.113964534588348     0.045674238935341    -0.000000000000000
    -0.073382088893015    -0.550298759805592     0.000000000000000
    -0.000000000000000     0.000000000000014    -0.029508579811827
1 57
     0.058949017739218    -0.000000000000000    -0.000000000000000
    -0.000000000000000     1.137595003415941    -0.000000000000000
     0.000000000000000     0.000000000000014     0.005814705406743
1 58
    -0.150530358862608    -0.202247504098700    -0.000000000000000
     0.025945392091991     1.080259272638628    -0.000000000000000
    -0.000000000000000     0.000000000000014     0.006662308233062
1 59
     0.009608231507522    -0.000000000000000    -0.000000000000000
    -0.000000000000000     0.616605806917910     0.000000000000000
     0.000000000000000     0.000000000000018    -0.025266065134255
1 60
    -0.150530358862608     0.202247504098700    -0.000000000000000
    -0.025945392091991     1.080259272638628    -0.000000000000000
    -0.000000000000000     0.000000000000011     0.006662308233062
1 61
    -0.692687408877395    -0.000000000000000    -0.000000000000000
     0.000000000000000    -0.056016419551577    -0.000000000000000
    -0.000000000000000     0.000000000000014     0.388562138132246
1 62
     1.358359533641665    -0.565299671384921    -0.000000000000000
    -0.586849908023333    -0.990963480853054     0.000000000000000
    -0.000000000000000     0.000000000000014    -0.314486151658002
1 63
     0.133140089194136    -0.000000000000000    -0.000000000000000
    -0.000000000000000    -1.210219972760317    -0.000000000000000
     0.000000000000000     0.000000000000014     0.808772115599027
1 64
     1.358359533641665     0.565299671384921    -0.000000000000000
     0.586849908023333    -0.990963480853049     0.000000000000000
     0.000000000000000     0.000000000000011    -0.314486151658002
2 1
    -2.800997208420789    -0.124561910453032     0.000000000000000
     0.124503878279120    -5.036988915431849    -0.000000000000000
    -0.000000000000000    -0.000000000000014     1.067672023852472
2 2
    30.470193327583203     0.000000000000000     0.000000000000000
    -0.000000000000002    34.104747818836728    -0.000000000000000
     0.000000000000002    -0.000000000000008     8.291358860149748
2 3
    -2.800997208420789     0.124561910453036     0.000000000000000
    -0.124503878279120    -5.036988915431849    -0.000000000000000
    -0.000000000000000    -0.000000000000014     1.067672023852472
2 4
    -0.185635018672897     0.000000000000000     0.000000000000000
     0.000000000000000    -3.266704383393241    -0.000000000000000
    -0.000000000000000    -0.000000000000014     1.073722257832192
2 5
    -0.322850214789164     0.194007081967360     0.000000000000000
     0.307076566745505     0.446083889660748    -0.000000000000000
     0.000000000000000    -0.000000000000014     0.020866031347367
2 6
    -0.231839493528229     0.000000000000000     0.000000000000000
     0.000000000000000    -0.235213351193376    -0.000000000000000
    -0.000000000000000    -0.000000000000014     0.048920934807508
2 7
    -0.322850214789164    -0.194007081967360     0.000000000000000
    -0.307076566745505     0.446083889660743    -0.000000000000000
    -0.000000000000000    -0.000000000000014     0.020866031347367
2 8
     0.200584419922374     0.000000000000000     0.000000000000000
    -0.000000000000000     0.755103073396597     0.000000000000000
     0.000000000000000    -0.000000000000014    -0.101598325326699
2 9
    -0.147877081395548    -0.032723580604827     0.000000000000000
     0.032937596768282    -2.211685808178723    -0.000000000000000
    -0.000000000000000    -0.000000000000018    -0.005130622417715
2 10
     0.254067444824725     0.000000000000000     0.000000000000000
    -0.000000000000000    -2.266307320405780     0.000000000000000
     0.000000000000000    -0.000000000000011    -0.994758678423178
2 11
    -0.147877081395547     0.032723580604827     0.000000000000000
    -0.032937596768282    -2.211685808178722     0.000000000000000
    -0.000000000000000    -0.000000000000014    -0.005130622417715
2 12
     0.403193281636179     0.000000000000000     0.000000000000000
    -0.000000000000000    -1.803546236218878    -0.000000000000000
     0.000000000000000    -0.000000000000018     1.016988375202621
2 13
    -0.321879951236276    -0.307334913878304     0.000000000000000
    -0.194948725648492     0.438198144889750    -0.000000000000000
    -0.000000000000000    -0.000000000000014     0.020786521701712
2 14
    -0.233782118501148     0.000000000000000     0.000000000000000
     0.000000000000000    -0.252299228077286    -0.000000000000000
    -0.000000000000000    -0.000000000000014     0.049295980305879
2 15
    -0.321879951236276     0.307334913878304     0.000000000000000
     0.194948725648492     0.438198144889750    -0.000000000000000
     0.000000000000000    -0.000000000000014     0.020786521701712
2 16
     0.198373267955359     0.000000000000000     0.000000000000000
    -0.000000000000000     0.742312561052241     0.000000000000000
     0.000000000000000    -0.000000000000018    -0.101898361725395
2 17
     0.200246138845826    -0.017247090236076     0.000000000000000
    -1.030779453689121     2.395689898637997     0.000000000000000
     0.000000000000000    -0.000000000000028    -1.196063599582792
2 18
    -9.163938910719212    -5.508644573718008     0.000000000000000
    -6.722052604013059    -4.463767738564570     0.000000000000000
    -0.000000000000001    -0.000000000000028    -3.080497708331585
2 19
    -9.163938910719212     5.508644573718008     0.000000000000000
     6.722052604013061    -4.463767738564570     0.000000000000000
     0.000000000000000    -0.000000000000028    -3.080497708331585
2 20
     0.200246138845826     0.017247090236076     0.000000000000000
     1.030779453689121     2.395689898638000     0.000000000000000
     0.000000000000000    -0.000000000000021    -1.196063599582792
2 21
     0.220734958282118    -0.029339196438997     0.000000000000000
     0.159006980464549     0.146744192610495    -0.000000000000000
     0.000000000000000    -0.000000000000028     0.021527611606493
2 22
     0.173054109426039    -0.143188872801353     0.000000000000000
     0.348773173563731     1.436718049577756    -0.000000000000000
     0.000000000000000    -0.000000000000021     0.346894583263233
2 23
     0.173054109426039     0.143188872801353     0.000000000000000
    -0.348773173563731     1.436718049577753    -0.000000000000000
    -0.000000000000000    -0.000000000000028     0.346894583263233
2 24
     0.220734958282118     0.029339196438997     0.000000000000000
    -0.159006980464549     0.146744192610491    -0.000000000000000
     0.000000000000000    -0.000000000000028     0.021527611606493
2 25
    -0.239618384888468     0.191837887343169     0.000000000000000
     0.136312799900305     0.882100174734141     0.000000000000000
     0.000000000000000    -0.000000000000021    -0.604993394332158
2 26
     0.011914311962685    -0.148053302235425     0.000000000000000
    -0.108235366110697     0.990898891082828    -0.000000000000000
     0.000000000000000    -0.000000000000028     0.612129760075160
2 27
     0.011914311962685     0.148053302235425     0.000000000000000
     0.108235366110697     0.990898891082832    -0.000000000000000
     0.000000000000000    -0.000000000000028     0.612129760075160
2 28
    -0.239618384888468    -0.191837887343169     0.000000000000000
    -0.136312799900305     0.882100174734138     0.000000000000000
    -0.000000000000000    -0.000000000000036    -0.604993394332157
2 29
     0.154586060513682     0.208730438032347     0.000000000000000
     0.080780369165020     0.329586825766750    -0.000000000000000
     0.000000000000000    -0.000000000000021     0.149374621273178
2 30
     0.083729024413203    -0.068319665792970     0.000000000000000
     0.326883323904838     0.426862205756301     0.000000000000000
     0.000000000000000    -0.000000000000036    -0.158752258914445
2 31
     0.083729024413203     0.068319665792970     0.000000000000000
    -0.326883323904838     0.426862205756297     0.000000000000000
     0.000000000000000    -0.000000000000028    -0.158752258914445
2 32
     0.154586060513682    -0.208730438032347     0.000000000000000
    -0.080780369165020     0.329586825766750    -0.000000000000000
     0.000000000000000    -0.000000000000021     0.149374621273178
2 33
     0.528870208474854    -0.019508066547701     0.000000000000000
     0.384166629801391    -0.299462504505733     0.000000000000000
     0.000000000000000     0.000000000000036    -0.018236212312789
2 34
    -1.113860985315561     1.897775720236240     0.000000000000000
     0.729553619492437    -2.100514938385736    -0.000000000000000
     0.000000000000000     0.000000000000036     0.540035514014308
2 35
    -1.113860985315561    -1.897775720236240     0.000000000000000
    -0.729553619492436    -2.100514938385739    -0.000000000000000
    -0.000000000000000     0.000000000000036     0.540035514014308
2 36
     0.528870208474854     0.019508066547701     0.000000000000000
    -0.384166629801391    -0.299462504505740     0.000000000000000
     0.000000000000000     0.000000000000028    -0.018236212312789
2 37
     0.090651985979759    -0.095846305021823     0.000000000000000
     0.178075444689874     0.741229885890490     0.000000000000000
     0.000000000000000     0.000000000000028    -0.142824826689628
2 38
     0.049268409815318     0.028679417223032     0.000000000000000
     0.123952692930585     0.675166136567320    -0.000000000000000
     0.000000000000000     0.000000000000021     0.142767819773875
2 39
     0.049268409815318    -0.028679417223032     0.000000000000000
    -0.123952692930585     0.675166136567327    -0.000000000000000
    -0.000000000000000     0.000000000000036     0.142767819773875
2 40
     0.090651985979759     0.095846305021823     0.000000000000000
    -0.178075444689874     0.741229885890490     0.000000000000000
     0.000000000000000     0.000000000000028    -0.142824826689628
2 41
     0.128216395013316    -0.181816376008790     0.000000000000000
     0.151784801449458    -0.843980624697000     0.000000000000000
     0.000000000000000     0.000000000000021    -0.041594045951333
2 42
    -0.106787731097686     0.074816235863047     0.000000000000000
    -0.075625062796879    -0.759827684749879     0.000000000000000
    -0.000000000000000     0.000000000000036     0.034826724978727
2 43
    -0.106787731097686    -0.074816235863047     0.000000000000000
     0.075625062796879    -0.759827684749887    -0.000000000000000
     0.000000000000000     0.000000000000021     0.034826724978727
2 44
     0.128216395013316     0.181816376008790     0.000000000000000
    -0.151784801449458    -0.843980624697000     0.000000000000000
    -0.000000000000000     0.000000000000021    -0.041594045951333
2 45
    -0.460496522602985     0.142541680788227     0.000000000000000
     0.172019646861620     1.355199966759177     0.000000000000000
     0.000000000000000     0.000000000000021    -0.334564587458789
2 46
    -1.276451457907179    -2.973811636525923     0.000000000000000
    -2.197851432462786    -0.935495639887982    -0.000000000000000
    -0.000000000000000     0.000000000000028     0.565649621371051
2 47
    -1.276451457907180     2.973811636525923     0.000000000000000
     2.197851432462786    -0.935495639887986    -0.000000000000000
     0.000000000000000     0.000000000000028     0.565649621371051
2 48
    -0.460496522602985    -0.142541680788227     0.000000000000000
    -0.172019646861620     1.355199966759184     0.000000000000000
    -0.000000000000000     0.000000000000021    -0.334564587458789
2 49
     0.262499821799504     1.349100597013187     0.000000000000000
     0.358735059468886     1.111292195286065     0.000000000000000
     0.000000000000000     0.000000000000014    -0.255632511871637
2 50
    -4.189208867017512     0.000000000000000     0.000000000000000
     0.000000000000000   -15.158239506729114     0.000000000000000
    -0.000000000000000     0.000000000000011    -5.274651890545083
2 51
     0.262499821799504    -1.349100597013187     0.000000000000000
    -0.358735059468886     1.111292195286063     0.000000000000000
     0.000000000000000     0.000000000000014    -0.255632511871638
2 52
    -0.475251871141884     0.000000000000000     0.000000000000000
     0.000000000000000    -0.779388247717806    -0.000000000000000
    -0.000000000000000     0.000000000000014     0.159802386309884
2 53
    -0.113964534588348     0.045674238935341     0.000000000000000
    -0.073382088893015    -0.550298759805592     0.000000000000000
     0.000000000000000     0.000000000000014    -0.029508579811827
2 54
     0.106751018422712     0.000000000000000     0.000000000000000
    -0.000000000000000    -0.021274653820594     0.000000000000000
     0.000000000000000     0.000000000000018    -0.139702947961188
2 55
    -0.113964534588348    -0.045674238935341     0.000000000000000
     0.073382088893015    -0.550298759805592     0.000000000000000
     0.000000000000000     0.000000000000014    -0.029508579811827
2 56
     0.087788397331774     0.000000000000000     0.000000000000000
    -0.000000000000000    -0.833240475506766    -0.000000000000000
     0.000000000000000     0.000000000000018     0.100827231782048
2 57
    -0.150530358862608     0.202247504098700     0.000000000000000
    -0.025945392091991     1.080259272638628    -0.000000000000000
    -0.000000000000000     0.000000000000011     0.006662308233062
2 58
     0.058949017739218     0.000000000000000     0.000000000000000
    -0.000000000000000     1.137595003415941     0.000000000000000
     0.000000000000000     0.000000000000014     0.005814705406743
2 59
    -0.150530358862608    -0.202247504098700     0.000000000000000
     0.025945392091991     1.080259272638628    -0.000000000000000
    -0.000000000000000     0.000000000000014     0.006662308233062
2 60
     0.009608231507522     0.000000000000000     0.000000000000000
    -0.000000000000000     0.616605806917910     0.000000000000000
     0.000000000000000     0.000000000000018    -0.025266065134255
2 61
     1.358359533641665     0.565299671384920     0.000000000000000
     0.586849908023333    -0.990963480853049     0.000000000000000
     0.000000000000000     0.000000000000011    -0.314486151658002
2 62
    -0.692687408877395     0.000000000000000     0.000000000000000
     0.000000000000000    -0.056016419551577    -0.000000000000000
    -0.000000000000000     0.000000000000014     0.388562138132246
2 63
     1.358359533641665    -0.565299671384920     0.000000000000000
    -0.586849908023333    -0.990963480853054     0.000000000000000
     0.000000000000000     0.000000000000014    -0.314486151658002
2 64
     0.133140089194136     0.000000000000000     0.000000000000000
    -0.000000000000000    -1.210219972760317    -0.000000000000000
     0.000000000000000     0.000000000000014     0.808772115599027
3 1
    -0.185635018672897     0.000000000000000     0.000000000000000
    -0.000000000000000    -3.266704383393241     0.000000000000000
    -0.000000000000000     0.000000000000014     1.073722257832192
3 2
    -2.800997208420789    -0.124561910453036     0.000000000000000
     0.124503878279120    -5.036988915431849     0.000000000000000
    -0.000000000000000     0.000000000000014     1.067672023852472
3 3
    30.470193327583203     0.000000000000000     0.000000000000000
     0.000000000000002    34.104747818836728     0.000000000000000
     0.000000000000002     0.000000000000008     8.291358860149748
3 4
    -2.800997208420789     0.124561910453032     0.000000000000000
    -0.124503878279120    -5.036988915431849     0.000000000000000
    -0.000000000000000     0.000000000000014     1.067672023852472
3 5
     0.200584419922374     0.000000000000000     0.000000000000000
     0.000000000000000     0.755103073396597    -0.000000000000000
     0.000000000000000     0.000000000000014    -0.101598325326699
3 6
    -0.322850214789164     0.194007081967360     0.000000000000000
     0.307076566745505     0.446083889660743     0.000000000000000
    -0.000000000000000     0.000000000000014     0.020866031347367
3 7
    -0.231839493528229     0.000000000000000     0.000000000000000
    -0.000000000000000    -0.235213351193376     0.000000000000000
    -0.000000000000000     0.000000000000014     0.048920934807508
3 8
    -0.322850214789164    -0.194007081967360     0.000000000000000
    -0.307076566745505     0.446083889660748     0.000000000000000
     0.000000000000000     0.000000000000014     0.020866031347367
3 9
     0.403193281636179     0.000000000000000     0.000000000000000
     0.000000000000000    -1.803546236218878     0.000000000000000
     0.000000000000000     0.000000000000018     1.016988375202621
3 10
    -0.147877081395547    -0.032723580604827     0.000000000000000
     0.032937596768282    -2.211685808178722    -0.000000000000000
    -0.000000000000000     0.000000000000014    -0.005130622417715
3 11
     0.254067444824725     0.000000000000000     0.000000000000000
     0.000000000000000    -2.266307320405780    -0.000000000000000
     0.000000000000000     0.000000000000011    -0.994758678423178
3 12
    -0.147877081395548     0.032723580604827     0.000000000000000
    -0.032937596768282    -2.211685808178723     0.000000000000000
    -0.000000000000000     0.000000000000018    -0.005130622417715
3 13
     0.198373267955359     0.000000000000000     0.000000000000000
     0.000000000000000     0.742312561052241    -0.000000000000000
     0.000000000000000     0.000000000000018    -0.101898361725395
3 14
    -0.321879951236276    -0.307334913878304     0.000000000000000
    -0.194948725648492     0.438198144889750     0.000000000000000
     0.000000000000000     0.000000000000014     0.020786521701712
3 15
    -0.233782118501148     0.000000000000000     0.000000000000000
    -0.000000000000000    -0.252299228077286     0.000000000000000
    -0.000000000000000     0.000000000000014     0.049295980305879
3 16
    -0.321879951236276     0.307334913878304     0.000000000000000
     0.194948725648492     0.438198144889750     0.000000000000000
    -0.000000000000000     0.000000000000014     0.020786521701712
3 17
     0.200246138845826     0.017247090236076     0.000000000000000
     1.030779453689121     2.395689898637997    -0.000000000000000
     0.000000000000000     0.000000000000028    -1.196063599582792
3 18
     0.200246138845826    -0.017247090236076     0.000000000000000
    -1.030779453689121     2.395689898638000    -0.000000000000000