 128  128
1 1
     4.973210721054864    -0.000000000000000    -0.000000000000000
     0.000000000000001    18.731346323481500   -11.586369903041184
    -0.000000000000000   -11.587226500000000    51.543095500000007
1 2
     0.111414362163543     0.043417197354781    -0.121843561292946
    -0.044476898127362    -0.020875240598369     0.088014196007763
     0.124281500000000     0.083741499999999    -0.334153499999999
1 3
    -0.061195191486044    -0.000000000000000    -0.000000000000000
    -0.000000000000000     0.015891885269556    -0.004774360910519
     0.000000000000000    -0.004485000000003    -0.131176000000000
1 4
     0.111414362163543    -0.043417197354781     0.121843561292946
     0.044476898127362    -0.020875240598369     0.088014196007764
    -0.124281500000000     0.083741499999999    -0.334153499999999
1 5
    -0.133575439131589    -0.000000000000000    -0.000000000000000
    -0.000000000000000    -0.102364605297321    -0.134675621144671
     0.000000000000000    -0.073472499999998     0.422643500000001
1 6
     0.070057180444383     0.023720887657660    -0.061895552405266
     0.028300539425942     0.015605833995787    -0.058367760750340
    -0.065749000000000    -0.056955499999999     0.122457000000001
1 7
    -0.068383787714514    -0.000000000000000    -0.000000000000000
    -0.000000000000000     0.027711876019697    -0.043723809892235
     0.000000000000000    -0.063220499999998     0.236497000000002
1 8
     0.070057180444383    -0.023720887657660     0.061895552405266
    -0.028300539425942     0.015605833995791    -0.058367760750339
     0.065749000000000    -0.056955499999999     0.122457000000001
1 9
     0.004773405483259    -0.000000000000000    -0.000000000000000
     0.000000000000000    -0.008247999018145    -0.124873170613776
    -0.000000000000000    -0.125723499999999     0.383559000000002
1 10
     0.058198401498879    -0.023260269937412     0.071995474610154
     0.024505990133988    -0.021746279158778     0.073360434973150
    -0.073988500000000     0.067142499999999    -0.065386499999998
1 11
    -0.083620799915919    -0.000000000000000    -0.000000000000000
    -0.000000000000000    -0.052563521138506     0.197259434777261
     0.000000000000000     0.191057500000001    -0.568149499999997
1 12
     0.058198401498879     0.023260269937412    -0.071995474610154
    -0.024505990133988    -0.021746279158778     0.073360434973150
     0.073988500000000     0.067142499999999    -0.065386499999998
1 13
    -0.132419640129132    -0.000000000000000    -0.000000000000000
    -0.000000000000000    -0.099426044471723    -0.080797201413348
     0.000000000000000    -0.133255999999999     0.406135500000000
1 14
     0.070042381481484    -0.027434317423236     0.063574864720297
    -0.024126681676097     0.017644493250242    -0.065491236811974
     0.063046000000000    -0.056595500000000     0.118417500000000
1 15
    -0.069529227442941    -0.000000000000000    -0.000000000000000
    -0.000000000000000     0.028925276285871    -0.074163317014315
     0.000000000000000    -0.041780500000002     0.245578500000001
1 16
     0.070042381481484     0.027434317423236    -0.063574864720297
     0.024126681676097     0.017644493250242    -0.065491236811974
    -0.063046000000000    -0.056595500000000     0.118417500000000
1 17
    -4.188088001876871    -0.000000000000000    -0.000000000000000
    -0.000000000000000    -4.918467790662280     3.733426181173995
     0.000000000000000     3.805906999999999   -14.142769500000004
1 18
     0.127422400332017    -0.037330753888257     0.095766308767603
    -0.063584319144579     0.028764082108293    -0.023942050186402
     0.255806000000000    -0.055793000000000     0.124109499999999
1 19
    -0.062643270005768    -0.000000000000000    -0.000000000000000
    -0.000000000000000    -0.022477545403623     0.036213957602480
     0.000000000000000     0.028048500000001    -0.071070500000000
1 20
     0.127422400332017     0.037330753888257    -0.095766308767603
     0.063584319144579     0.028764082108293    -0.023942050186404
    -0.255806000000000    -0.055793000000000     0.124109499999999
1 21
    -0.128696221063598    -0.000000000000000    -0.000000000000000
    -0.000000000000000     0.029952148414530     0.161452573587986
     0.000000000000000     0.628552999999997    -0.583545500000000
1 22
     0.072602602063111    -0.021851038695297     0.011114761085729
     0.002315169679630    -0.025907508215609     0.050341740003057
    -0.020092500000000     0.158742499999999    -0.057899000000001
1 23
    -0.048469563288697    -0.000000000000000    -0.000000000000000
    -0.000000000000000    -0.030589920217039    -0.021499294248482
     0.000000000000000     0.133371500000003     0.060090999999999
1 24
     0.072602602063111     0.021851038695297    -0.011114761085729
    -0.002315169679630    -0.025907508215609     0.050341740003057
     0.020092500000000     0.158742499999999    -0.057899000000001
1 25
     0.009005908872538    -0.000000000000000    -0.000000000000000
     0.000000000000000     0.066354379664666     0.137159771554130
    -0.000000000000000     0.203261500000000    -0.366019000000001
1 26
     0.051397168124306     0.017026576790037    -0.101588960720440
     0.051582281288285     0.008003427942920    -0.027904282056368
    -0.164928500000000    -0.013489000000002     0.063549999999999
1 27
    -0.078450042278806    -0.000000000000000    -0.000000000000000
    -0.000000000000000     0.038982618255064    -0.130524582290832
     0.000000000000000    -0.180040999999999     0.396102999999997
1 28
     0.051397168124306    -0.017026576790037     0.101588960720440
    -0.051582281288285     0.008003427942922    -0.027904282056368
     0.164928500000000    -0.013489000000002     0.063549999999999
1 29
     0.075848384601061    -0.000000000000000    -0.000000000000000
     0.000000000000000     0.083851809139826    -0.014141340367932
    -0.000000000000000    -0.044513500000003    -0.108619500000000
1 30
     0.046827248380916     0.025183765140286    -0.028327804808299
    -0.003814916897852    -0.015745978646491     0.048080285433572
     0.027979000000000    -0.097008500000001    -0.241148999999999
1 31
    -0.069638739768398    -0.000000000000000    -0.000000000000000
    -0.000000000000000    -0.030307431171411     0.098789263391901
     0.000000000000000    -0.023530500000000    -0.380623500000000
1 32
     0.046827248380916    -0.025183765140286     0.028327804808299
     0.003814916897852    -0.015745978646491     0.048080285433572
    -0.027979000000000    -0.097008500000001    -0.241148999999999
1 33
     0.414200773114831    -0.000000000000000    -0.000000000000000
     0.000000000000000    -1.641731113727111    -0.495723684649741
    -0.000000000000000     1.045704999999991    -0.690933000000001
1 34
     0.025084242114784     0.024621034576029    -0.027712907899821
    -0.006685719302073     0.040569873488192     0.027769462186641
     0.045289500000000    -0.238207500000001    -0.203505500000000
1 35
    -0.020566858689688    -0.000000000000000    -0.000000000000000
    -0.000000000000000     0.105276159942186     0.025038745847166
     0.000000000000000    -0.295875500000008    -0.169589000000001
1 36
     0.025084242114784    -0.024621034576029     0.027712907899821
     0.006685719302073     0.040569873488192     0.027769462186641
    -0.045289500000000    -0.238207500000001    -0.203505500000000
1 37
    -0.134849629837242    -0.000000000000000    -0.000000000000000
    -0.000000000000000     0.173932174515340     0.172603985840962
     0.000000000000000    -0.548384499999997     0.088149500000000
1 38
     0.017887136482647     0.060465972589164    -0.048885784120247
     0.021667856048761     0.078750422691883    -0.002239944684009
    -0.029118000000000    -0.269917000000007     0.019658499999999
1 39
    -0.023562908728708    -0.000000000000000    -0.000000000000000
    -0.000000000000000     0.099986836171329    -0.047668133422003
     0.000000000000000    -0.393897499999994     0.252482499999999
1 40
     0.017887136482647    -0.060465972589164     0.048885784120247
    -0.021667856048761     0.078750422691883    -0.002239944684009
     0.029118000000000    -0.269917000000007     0.019658499999999
1 41
    -0.000128011029081    -0.000000000000000    -0.000000000000000
    -0.000000000000000     0.162482283839964    -0.068468936924760
    -0.000000000000000    -0.760253000000006     0.017278999999999
1 42
     0.019419199116826    -0.049268707285272    -0.008145349179927
     0.017851149945123     0.052279861036187     0.034954490258793
    -0.022921000000000    -0.210396999999993     0.027236500000001
1 43
    -0.029859127494333    -0.000000000000000    -0.000000000000000
    -0.000000000000000    -0.062830614905270     0.077217211404087
     0.000000000000000     0.218854499999999    -0.167015500000000
1 44
     0.019419199116826     0.049268707285272     0.008145349179927
    -0.017851149945123     0.052279861036187     0.034954490258793
     0.022921000000000    -0.210396999999993     0.027236500000001
1 45
    -0.153661331527040    -0.000000000000000    -0.000000000000000
    -0.000000000000000     0.162947037920542    -0.172696406969395
     0.000000000000000    -0.679729000000002     0.413777499999999
1 46
     0.025186724932864    -0.093039229879281     0.032641332519454
    -0.002495667562773     0.083736458740152    -0.019745372748751
     0.038026500000000    -0.221949499999994     0.075669999999999
1 47
    -0.022585437229191    -0.000000000000000    -0.000000000000000
    -0.000000000000000     0.048274440230351     0.003603685511110
     0.000000000000000    -0.174010999999993     0.104613000000001
1 48
     0.025186724932864     0.093039229879281    -0.032641332519454
     0.002495667562773     0.083736458740166    -0.019745372748751
    -0.038026500000000    -0.221949499999994     0.075669999999999
1 49
     1.046914892975232    -0.000000000000000    -0.000000000000000
     0.000000000000000     0.743954512856416    -0.925137089012310
    -0.000000000000000    -0.439017000000000     0.314433000000001
1 50
     0.022575817903306    -0.009186456219918     0.037438416343352
    -0.004489759951115    -0.025882430136861    -0.055492778142602
     0.009247500000000     0.093570000000000     0.104386500000000
1 51
    -0.020111050632381    -0.000000000000000    -0.000000000000000
    -0.000000000000000    -0.035776671862587     0.037482814974791
     0.000000000000000     0.096535000000010     0.009267999999997
1 52
     0.022575817903306     0.009186456219918    -0.037438416343352
     0.004489759951115    -0.025882430136850    -0.055492778142602
    -0.009247500000000     0.093570000000000     0.104386500000000
1 53
    -0.030589456313427    -0.000000000000000    -0.000000000000000
    -0.000000000000000    -0.054580690465855    -0.054102663249778
     0.000000000000000    -0.013998500000000    -0.413866500000001
1 54
     0.020444027297622    -0.010022227649671     0.079530366570475
    -0.018461886798050    -0.032824315806479     0.056707758147556
     0.030168500000000     0.050681000000004    -0.267915000000000
1 55
    -0.007213014517254    -0.000000000000000    -0.000000000000000
    -0.000000000000000    -0.036699019820269     0.118124829401884
     0.000000000000000     0.099131000000000    -0.479851999999999
1 56
     0.020444027297622     0.010022227649671    -0.079530366570475
     0.018461886798050    -0.032824315806486     0.056707758147556
    -0.030168500000000     0.050681000000004    -0.267915000000000
1 57
    -0.035143837145772    -0.000000000000000    -0.000000000000000
    -0.000000000000000    -0.025696431315620     0.009938019563631
     0.000000000000000     0.185586499999999    -0.520139500000001
1 58
     0.016535251221771     0.014990239495056    -0.012583188179438
     0.002918392083049    -0.024245613608951    -0.018164877080083
    -0.022763500000000     0.056172500000010    -0.079877000000002
1 59
    -0.011413700136299    -0.000000000000000    -0.000000000000000
    -0.000000000000000    -0.001272252483322    -0.103589792849451
     0.000000000000000    -0.031581999999993     0.336715500000000
1 60
     0.016535251221771    -0.014990239495056     0.012583188179438
    -0.002918392083049    -0.024245613608947    -0.018164877080082
     0.022763500000000     0.056172500000010    -0.079877000000002
1 61
     0.022068953423995    -0.000000000000000    -0.000000000000000
     0.000000000000000    -0.117063184473414     0.063841924040553
    -0.000000000000000     0.643020499999999    -0.388174500000000
1 62
     0.007288489228042     0.030807001068052    -0.085482509448686
     0.009554446573314    -0.024307191693383     0.066859272632238
    -0.035098000000000     0.169342499999999     0.003356999999999
1 63
    -0.019914964373962    -0.000000000000000    -0.000000000000000
    -0.000000000000000    -0.017433755520178     0.036829584123551
     0.000000000000000     0.123885500000014    -0.010705500000002
1 64
     0.007288489228042    -0.030807001068052     0.085482509448686
    -0.009554446573314    -0.024307191693387     0.066859272632239
     0.035098000000000     0.169342499999999     0.003356999999999
1 65
    -2.069214670959596    -0.000000000000000    -0.000000000000000
    -0.000000000000000     0.648260641640922    -4.910205358563983
     0.000000000000000    -4.919958499999996   -24.282377500000003
1 66
    -0.010261970848640     0.020976050013861     0.021548029929929
     0.008864383173886     0.011437339982775    -0.041495627013776
    -0.035353500000000    -0.024163000000001     0.227853500000000
1 67
    -0.001017428699346    -0.000000000000000    -0.000000000000000
    -0.000000000000000     0.002157211884812    -0.065825613634594
     0.000000000000000     0.007487000000001     0.271457000000003
1 68
    -0.010261970848640    -0.020976050013861    -0.021548029929929
    -0.008864383173886     0.011437339982770    -0.041495627013777
     0.035353500000000    -0.024163000000001     0.227853500000000
1 69
     0.001739618088845    -0.000000000000000    -0.000000000000000
     0.000000000000000    -0.010657563383075     0.056274567204151
    -0.000000000000000     0.061124999999997     0.312542499999999
1 70
     0.003274640515604     0.017585237639496     0.043585535557765
     0.005820375370876    -0.003474784193556    -0.017142318506626
    -0.008480500000000     0.028050500000003     0.068043000000003
1 71
    -0.004532182387996    -0.000000000000000    -0.000000000000000
    -0.000000000000000     0.016068026473678     0.037801269287961
     0.000000000000000    -0.067177500000000    -0.247979999999998
1 72
     0.003274640515604    -0.017585237639496    -0.043585535557765
    -0.005820375370876    -0.003474784193558    -0.017142318506626
     0.008480500000000     0.028050500000003     0.068043000000003
1 73
     0.002432949500691    -0.000000000000000    -0.000000000000000
     0.000000000000000     0.006221510865584     0.066995858592224
    -0.000000000000000     0.108618000000003     0.306076500000003
1 74
     0.003154768916117     0.012128490044347     0.048940540282975
    -0.007220492567179    -0.004395040244146    -0.045928874537269
     0.020512000000000     0.000040000000002    -0.019404999999997
1 75
     0.000967112225487    -0.000000000000000    -0.000000000000000
     0.000000000000000    -0.007913091159418    -0.056962542136789
    -0.000000000000000     0.028838000000000     0.054066500000001
1 76
     0.003154768916117    -0.012128490044347    -0.048940540282975
     0.007220492567179    -0.004395040244150    -0.045928874537268
    -0.020512000000000     0.000040000000002    -0.019404999999997
1 77
     0.089655816986367    -0.000000000000000    -0.000000000000000
     0.000000000000000     0.017988397524945     0.292746807330036
    -0.000000000000000    -0.041588500000000    -0.359540999999997
1 78
     0.006479355931508    -0.012094452429679    -0.022493683659213
    -0.002384896443380    -0.003598298905354     0.001826676409053
     0.001914000000000     0.014481500000002     0.047874000000002
1 79
     0.000194606362129    -0.000000000000000    -0.000000000000000
     0.000000000000000    -0.017177863081732    -0.063553252806736
    -0.000000000000000     0.033191499999997     0.074652499999999
1 80
     0.006479355931508     0.012094452429679     0.022493683659213
     0.002384896443380    -0.003598298905354     0.001826676409054
    -0.001914000000000     0.014481500000002     0.047874000000002
1 81
     0.055462813206892    -0.000000000000000    -0.000000000000000
     0.000000000000000    -0.124091276796953     0.160185560658046
    -0.000000000000000    -0.367716499999993    -0.102691000000000
1 82
     0.018059914374500    -0.061621401617554    -0.028296726986209
    -0.016144208779699    -0.025346097729219    -0.018789186102388
     0.016626500000000     0.091844999999999     0.140595500000007
1 83
    -0.025511192194437    -0.000000000000000    -0.000000000000000
    -0.000000000000000    -0.051527974659367    -0.050206351854809
     0.000000000000000     0.181519000000002     0.157582000000005
1 84
     0.018059914374500     0.061621401617554     0.028296726986209
     0.016144208779699    -0.025346097729223    -0.018789186102386
    -0.016626500000000     0.091844999999999     0.140595500000007
1 85
     0.410944261328779    -0.000000000000000    -0.000000000000000
     0.000000000000000    -1.115606658142100     0.019575844062134
    -0.000000000000000     0.146056999999999    -0.667586499999995
1 86
     0.023505932721544    -0.006009858833515    -0.026847168570196
    -0.013114185966908    -0.093882681837641    -0.028411070182765
     0.038908000000000     0.268009999999997     0.129622000000001
1 87
    -0.021785553284468    -0.000000000000000    -0.000000000000000
    -0.000000000000000    -0.014660318938263    -0.021747466728146
     0.000000000000000     0.172412000000001     0.169145000000004
1 88
     0.023505932721544     0.006009858833515     0.026847168570196
     0.013114185966908    -0.093882681837641    -0.028411070182766
    -0.038908000000000     0.268009999999997     0.129622000000001
1 89
     0.008935613798765    -0.000000000000000    -0.000000000000000
     0.000000000000000    -0.216163146000689    -0.096389911938906
    -0.000000000000000     0.575280000000006     0.369478000000001
1 90
     0.025739836171236     0.078717163559148     0.044361371187772
    -0.003276396399539    -0.030222358502300    -0.020653511469914
    -0.017110000000000     0.149645000000000     0.100947500000000
1 91
    -0.022501823088808    -0.000000000000000    -0.000000000000000
    -0.000000000000000     0.078904282618208     0.050582567400200
     0.000000000000000    -0.186322999999994    -0.181854500000000
1 92
     0.025739836171236    -0.078717163559148    -0.044361371187772
     0.003276396399539    -0.030222358502300    -0.020653511469919
     0.017110000000000     0.149645000000000     0.100947500000000
1 93
    -0.029861347338768    -0.000000000000000    -0.000000000000000
    -0.000000000000000    -0.144119582859798    -0.056052409305262
     0.000000000000000     0.348512500000012     0.187700000000003
1 94
     0.017038045986284     0.036136477582261     0.034634752822026
     0.002174926162552    -0.075308292880866    -0.034799239102025
    -0.030626000000000     0.244141500000005     0.056184500000004
1 95
    -0.026641832959965    -0.000000000000000    -0.000000000000000
    -0.000000000000000    -0.083182848724418    -0.040824674883006
     0.000000000000000     0.352754499999996     0.163765000000001
1 96
     0.017038045986284    -0.036136477582261    -0.034634752822026
    -0.002174926162552    -0.075308292880869    -0.034799239102025
     0.030626000000000     0.244141500000005     0.056184500000004
1 97
    -1.955839816185932    -0.000000000000000    -0.000000000000000
    -0.000000000000000   -12.422046147519229    13.006929308118744
     0.000000000000000    12.757266000000003   -12.245338499999997
1 98
     0.002400761756384    -0.019777334018993     0.001836921269909
     0.020695507185161     0.021219362995030    -0.049148093593590
    -0.036617500000000    -0.051396000000004     0.142082499999999
1 99
    -0.001827671918098    -0.000000000000000    -0.000000000000000
    -0.000000000000000    -0.007797769378302    -0.019273806419611
     0.000000000000000    -0.047373000000004     0.113054000000002
1 100
     0.002400761756384     0.019777334018993    -0.001836921269909
    -0.020695507185161     0.021219362995030    -0.049148093593590
     0.036617500000000    -0.051396000000004     0.142082499999999
1 101
     0.072825696428822    -0.000000000000000    -0.000000000000000
     0.000000000000000     0.219177983641217    -0.207702677973710
    -0.000000000000000    -0.396243500000001     0.228465000000002
1 102
     0.003663853239863    -0.045588945160301     0.030503992302680
    -0.000257764709513     0.003704723080556     0.003050469451108
     0.003806000000000    -0.034847500000001    -0.030863500000001
1 103
    -0.004137790026722    -0.000000000000000    -0.000000000000000
    -0.000000000000000    -0.069668334614084     0.064376229050742
     0.000000000000000     0.148745000000002    -0.134541000000000
1 104
     0.003663853239863     0.045588945160301    -0.030503992302680
     0.000257764709513     0.003704723080560     0.003050469451108
    -0.003806000000000    -0.034847500000001    -0.030863500000001
1 105
    -0.041367540993190    -0.000000000000000    -0.000000000000000
    -0.000000000000000     0.116672335711433    -0.156433491021548
     0.000000000000000    -0.194906000000000     0.149666500000004
1 106
     0.002656783814547    -0.027996308039345     0.028640062925479
    -0.000652028227759     0.027174612759859    -0.036447387746595
     0.007194500000000    -0.092825499999996     0.121721000000003
1 107
    -0.000675572656366    -0.000000000000000    -0.000000000000000
    -0.000000000000000     0.015262947102308    -0.014927171756372
     0.000000000000000    -0.113761500000003     0.085666999999999
1 108
     0.002656783814547     0.027996308039345    -0.028640062925479
     0.000652028227759     0.027174612759859    -0.036447387746597
    -0.007194500000000    -0.092825499999996     0.121721000000003
1 109
    -0.112553512332738    -0.000000000000000    -0.000000000000000
    -0.000000000000000     0.145598985230187    -0.068790739877040
     0.000000000000000     0.271526500000000    -0.024740499999997
1 110
    -0.000271930943280     0.043111228796835    -0.027092091406187
    -0.001298375984618     0.000086588619723     0.007550195125890
    -0.004499000000000     0.030498499999997    -0.024534499999998
1 111
    -0.002692671299578    -0.000000000000000    -0.000000000000000
    -0.000000000000000     0.020399105977646    -0.006863218175030
     0.000000000000000    -0.101500000000005     0.090891500000001
1 112
    -0.000271930943280    -0.043111228796835     0.027092091406187
     0.001298375984618     0.000086588619723     0.007550195125892
     0.004499000000000     0.030498499999997    -0.024534499999998
1 113
     0.991440240598020    -0.000000000000000    -0.000000000000000
     0.000000000000000     0.086171841004096     1.210902003300010
    -0.000000000000000    -0.709546500000000     0.103619999999996
1 114
     0.024719447679310    -0.023174435952594     0.029967529897572
     0.010960406635068     0.011308204761163    -0.000279497980722
    -0.010698000000000    -0.074149500000001    -0.012525000000004
1 115
    -0.012051535437271    -0.000000000000000    -0.000000000000000
    -0.000000000000000     0.001806521266379     0.012203902109496
     0.000000000000000    -0.058629000000001    -0.069377000000006
1 116
     0.024719447679310     0.023174435952594    -0.029967529897572
    -0.010960406635068     0.011308204761161    -0.000279497980722
     0.010698000000000    -0.074149500000001    -0.012525000000004
1 117
     0.066512458855862    -0.000000000000000    -0.000000000000000
     0.000000000000000    -0.282167716515051    -0.349953195097360
    -0.000000000000000     0.189901500000000     0.225358499999999
1 118
     0.016451267107316    -0.002286069793913     0.024828590030694
     0.008808150241908    -0.000119023829164     0.047740482942157
    -0.027138500000000    -0.055658500000001    -0.134848999999996
1 119
    -0.015842289783998    -0.000000000000000    -0.000000000000000
    -0.000000000000000     0.015811018328377     0.017811505659393
     0.000000000000000     0.001401999999999    -0.164553999999999
1 120
     0.016451267107316     0.002286069793913    -0.024828590030694
    -0.008808150241908    -0.000119023829164     0.047740482942164
     0.027138500000000    -0.055658500000001    -0.134848999999996
1 121
    -0.043372060517937    -0.000000000000000    -0.000000000000000
    -0.000000000000000    -0.090991938536633     0.226138345453581
     0.000000000000000     0.007363499999999    -0.348889000000000
1 122
     0.008676261973950     0.017789463327510    -0.047091779842749
     0.005990145903178     0.024249281961896     0.001588164708606
    -0.002205500000000     0.004123999999999    -0.060189999999999
1 123
    -0.015684680829117    -0.000000000000000    -0.000000000000000
    -0.000000000000000     0.053693569057989    -0.079220259912367
     0.000000000000000    -0.121045500000000     0.169826499999999
1 124
     0.008676261973950    -0.017789463327510     0.047091779842749
    -0.005990145903178     0.024249281961896     0.001588164708606
     0.002205500000000     0.004123999999999    -0.060189999999999
1 125
    -0.039178774380342    -0.000000000000000    -0.000000000000000
    -0.000000000000000    -0.043291387990443     0.189847524108206
     0.000000000000000     0.068960499999999    -0.239338500000006
1 126
     0.014571428844997     0.005736078019877    -0.031044154448516
    -0.002503665609856     0.002336004785485     0.050695752605577
     0.022179000000000     0.032588499999999    -0.160000500000002
1 127
    -0.011008948500996    -0.000000000000000    -0.000000000000000
    -0.000000000000000    -0.003449215451621     0.038319971020854
     0.000000000000000     0.096964999999999    -0.205406000000007
1 128
     0.014571428844997    -0.005736078019877     0.031044154448516
     0.002503665609856     0.002336004785485     0.050695752605577
    -0.022179000000000     0.032588499999999    -0.160000500000002
2 1
     0.111414362163543    -0.043417197354781     0.121843561292946
     0.044476898127362    -0.020875240598369     0.088014196007764
    -0.124281500000000     0.083741499999999    -0.334153499999999
2 2
     4.973210721054863     0.000000000000000     0.000000000000000
     0.000000000000001    18.731346323481500   -11.586369903041184
    -0.000000000000000   -11.587226500000000    51.543095500000007
2 3
     0.111414362163543     0.043417197354781    -0.121843561292946
    -0.044476898127362    -0.020875240598369     0.088014196007763
     0.124281500000000     0.083741499999999    -0.334153499999999
2 4
    -0.061195191486044     0.000000000000000     0.000000000000000
    -0.000000000000000     0.015891885269556    -0.004774360910519
     0.000000000000000    -0.004485000000003    -0.131176000000000
2 5
     0.070057180444383    -0.023720887657660     0.061895552405266
    -0.028300539425942     0.015605833995791    -0.058367760750339
     0.065749000000000    -0.056955499999999     0.122457000000001
2 6
    -0.133575439131589     0.000000000000000     0.000000000000000
    -0.000000000000000    -0.102364605297321    -0.134675621144671
     0.000000000000000    -0.073472499999998     0.422643500000001
2 7
     0.070057180444383     0.023720887657660    -0.061895552405266
     0.028300539425942     0.015605833995787    -0.058367760750340
    -0.065749000000000    -0.056955499999999     0.122457000000001
2 8
    -0.068383787714514     0.000000000000000     0.000000000000000
    -0.000000000000000     0.027711876019697    -0.043723809892235
     0.000000000000000    -0.063220499999998     0.236497000000002
2 9
     0.058198401498879     0.023260269937412    -0.071995474610154
    -0.024505990133988    -0.021746279158778     0.073360434973150
     0.073988500000000     0.067142499999999    -0.065386499999998
2 10
     0.004773405483259     0.000000000000000     0.000000000000000
     0.000000000000000    -0.008247999018145    -0.124873170613776
    -0.000000000000000    -0.125723499999999     0.383559000000002
2 11
     0.058198401498879    -0.023260269937412     0.071995474610154
     0.024505990133988    -0.021746279158778     0.073360434973150
    -0.073988500000000     0.067142499999999    -0.065386499999998
2 12
    -0.083620799915919     0.000000000000000     0.000000000000000
    -0.000000000000000    -0.052563521138506     0.197259434777261
     0.000000000000000     0.191057500000001    -0.568149499999997
2 13
     0.070042381481484     0.027434317423236    -0.063574864720297
     0.024126681676097     0.017644493250242    -0.065491236811974
    -0.063046000000000    -0.056595500000000     0.118417500000000
2 14
    -0.132419640129131     0.000000000000000     0.000000000000000
    -0.000000000000000    -0.099426044471723    -0.080797201413348
     0.000000000000000    -0.133255999999999     0.406135500000000
2 15
     0.070042381481484    -0.027434317423236     0.063574864720297
    -0.024126681676097     0.017644493250242    -0.065491236811974
     0.063046000000000    -0.056595500000000     0.118417500000000
2 16
    -0.069529227442941     0.000000000000000     0.000000000000000
    -0.000000000000000     0.028925276285871    -0.074163317014315
     0.000000000000000    -0.041780500000002     0.245578500000001
2 17
     0.127422400332017     0.037330753888257    -0.095766308767603
     0.063584319144579     0.028764082108293    -0.023942050186404
    -0.255806000000000    -0.055793000000000     0.124109499999999
2 18
    -4.188088001876870     0.000000000000000     0.000000000000000