 128  128
1 1
    16.468364204017867    -0.366495958681830    -0.541767195490274
    -0.365665468857691    27.358123063845866     1.594674178644216
    -0.543146000000001     1.590485499999961    18.992840000000022
1 2
    -2.125361383705522     0.689072452482592    -0.812731572493438
    -0.547623502324363     0.486522945248771    -0.292470468859382
    -0.220168999999998    -0.047378499999990     0.042610500000002
1 3
     0.062764891252164    -0.027799461676936    -0.004578026233788
    -0.027917375425561     0.597221929883478     0.144505718026881
    -0.004611499999998     0.144412000000010     0.068162000000001
1 4
    -2.125496395625683    -0.547755550554566    -0.219817162444467
     0.688910221342817     0.486712617717380    -0.047527510349994
    -0.812536500000001    -0.292627999999990     0.042594000000001
1 5
     0.037854517044558     0.194860938883724     0.082073232515397
     0.127734269046348    -0.056211025561471     0.060713320375606
     0.029390000000001    -0.038652999999989     0.064687000000001
1 6
     0.025330818406394     0.016807535602705    -0.001479504658908
     0.047831590852968    -0.180694705543335    -0.095433331713772
     0.024921500000001    -0.037523499999985    -0.003085499999999
1 7
     0.025069017226296     0.014793270776614     0.017730187280339
    -0.000587959817754    -0.201815514044581    -0.116248802560829
    -0.007748999999999    -0.053202499999987    -0.015126499999999
1 8
     0.098910807991359    -0.176940303219808    -0.096312004466804
    -0.146188864965810    -0.067633580157354     0.007797145821627
    -0.006961999999998    -0.070812499999988     0.002001000000001
1 9
    -0.001255866317796     0.000768599847939    -0.003295995786853
     0.000706593575749    -0.072802421429028    -0.009378698762394
    -0.003379999999999    -0.009357999999988     0.000092500000001
1 10
     0.000827659305264     0.004433334899485     0.001420765383840
     0.003699188493186    -0.076897858469804    -0.008832600864847
     0.001541000000001    -0.015150499999987     0.001686500000001
1 11
    -0.001442455164723     0.006242186976789     0.001481673002181
     0.006257717842957    -0.074735197759187    -0.008597864768294
     0.001441000000001    -0.008656499999987     0.001310000000001
1 12
     0.000845643216677     0.003668266606584     0.001589240510552
     0.004413864791992    -0.077017774699545    -0.015037787577913
     0.001384000000002    -0.008895499999987     0.001478000000001
1 13
     0.037753933909796     0.127761033877173     0.029482498263630
     0.194864204558819    -0.056143325691380    -0.038510037288444
     0.082062000000001     0.060726500000008     0.064708500000002
1 14
     0.098921848083743    -0.146368769417751    -0.007029489727236
    -0.176858486674564    -0.067482486932398    -0.070831859189291
    -0.096524499999998     0.007600500000009     0.002233000000002
1 15
     0.025159715449894    -0.000617840722235    -0.007803870006874
     0.014719578876776    -0.201664279448758    -0.053378135940917
     0.017719500000001    -0.116353499999985    -0.015097999999999
1 16
     0.025303009402634     0.047882812751905     0.025109325874570
     0.016683800096956    -0.180728430960572    -0.037414327302711
    -0.001432999999999    -0.095388999999983    -0.003286499999999
1 17
     0.096391845481718    -0.036320764133409    -0.014528035170235
    -0.048580794678993     0.027199612750320     0.057221463059671
    -0.039634999999999     0.112632499999999    -0.003767000000003
1 18
     0.006896046340218     0.001339164733217    -0.000246434359372
    -0.032336396918637    -0.034674691788164     0.111530308143879
    -0.002083999999999     0.013903999999999    -0.040890500000007
1 19
     0.054053613705488    -0.015976679205258     0.053284832938215
    -0.022067264450218     0.048570754059458     0.097057501725419
     0.012676500000001     0.028830499999999    -0.029599500000007
1 20
    -0.065614077769475     0.003575534014976    -0.013139857924803
    -0.047225580614417    -0.073773325664479     0.066533789433215
     0.092567500000001    -0.000836500000001     0.004786999999993
1 21
     0.001188463684527    -0.000085290895034     0.000261628449965
    -0.003530556040588     0.002377977701075     0.015358971756781
     0.000110000000001    -0.001418000000001     0.000913999999995
1 22
     0.001232434268057     0.001458808858172    -0.001338879573339
    -0.002057766015052    -0.000341927637190     0.014187068283150
    -0.000661499999999     0.000081499999999     0.001369999999994
1 23
    -0.002731835854173    -0.003252894427199    -0.000220602132201
    -0.003145046071926    -0.005098530262341     0.016916469596754
    -0.003565499999999    -0.002985500000001     0.001122499999994
1 24
    -0.000039290701079     0.004846592826856    -0.000757535935025
    -0.005498253583138    -0.003003889368453     0.019223470287003
    -0.001326499999999     0.000411499999999     0.003708999999994
1 25
    -0.006851569391860    -0.000450911567317    -0.005192519002946
    -0.022228056130522     0.020384837563904     0.028006889597237
     0.001001500000001    -0.004614000000001     0.006187499999992
1 26
     0.007640260285166     0.004235700559143     0.004812147259597
     0.015501975173772     0.004827707265696     0.025333175924399
     0.004295500000000     0.001277999999999     0.003246499999996
1 27
    -0.002788758423113    -0.007732701154900    -0.002170607568923
    -0.007958629031856     0.007011944341491     0.013233389396228
    -0.004462999999999     0.008558499999999     0.001680999999994
1 28
     0.008379822401637    -0.007745447065401    -0.004706859256177
    -0.007102796842290    -0.002052831127144     0.015087057403384
     0.014929000000001     0.007236999999999    -0.002055500000004
1 29
    -0.922196280423114     0.448729511190497    -0.571797536145886
    -1.054044196117240     0.389090117540470    -0.307098734776821
     0.312357500000003     0.186206499999999    -0.313141500000008
1 30
    -0.219697819950753    -0.047385640519219     0.031532318770239
     0.053064956163981     0.003650395325800    -0.107000821173763
     0.083988000000001    -0.029403000000001     0.012676499999991
1 31
    -0.116229107346061     0.063706688078772    -0.124931951868307
     0.177014853311259     0.054137696700414    -0.121693293281629
    -0.106881000000000     0.022781999999999    -0.095389000000008
1 32
    -0.782249997796229    -0.439789363863447     0.172508805304792
     1.129614911150347     0.152482291527966     0.303024259527445
    -0.606074000000002    -0.027284000000001    -0.162914500000010
1 33
    -0.266593888268411    -0.818928180060389    -0.471981634543090
    -0.783957611919353    -1.148977136851371    -0.710193627154178
    -1.390073499999989    -0.958128499999980    -0.315488000000016
1 34
     0.063779578570500    -0.086065218651191     0.020149957542114
    -0.000304528986226     0.508601240333368    -0.162585117398725
    -0.126155499999989     0.151768500000024     0.096377999999987
1 35
     0.015070064961084     0.013087227459156    -0.012099113276490
     0.001471714317851     0.555346360605286    -0.135901553066605
     0.101412500000013     0.130522500000019     0.082729499999985
1 36
    -1.024411809274691     1.198991229558676     0.205629662536250
     1.092846812531215    -1.143625479404458    -0.335055254477290
     1.011040500000007    -0.392527999999977     0.426435999999988
1 37
     0.006070042590414    -0.002530737349691    -0.004220675906096
     0.003070484478520     0.010147914635933    -0.051397899598523
    -0.002554499999992    -0.001200999999973    -0.010799000000013
1 38
     0.002895774070997    -0.003004340929849     0.003489841797825
     0.012107464198876    -0.008844184599837    -0.051976901003801
     0.001701000000015    -0.005491499999984    -0.006824500000011
1 39
    -0.000222945665336     0.001547040718874     0.008827026383683
     0.016595115475223     0.011556958949576    -0.045382699091599
     0.008609500000013     0.003181500000018    -0.004620500000016
1 40
    -0.028264420393571     0.000715951078620     0.000415287626408
     0.005095263397021     0.012368029766005    -0.032015938357258
    -0.014307999999986    -0.022853999999974     0.013202499999984
1 41
     0.005749387930224     0.018260834887181     0.004906451496786
     0.021943930397097    -0.005261199092047    -0.044046361825218
     0.003987500000008     0.006274000000026    -0.033817500000016
1 42
    -0.003875589107702    -0.017525970628057     0.012095822201631
    -0.003943004133855     0.001721826901763    -0.055594367809812
     0.012583500000009     0.004547000000017    -0.022174500000016
1 43
     0.001285046286987     0.006501680710986    -0.016291867529309
     0.008705050416383     0.005254933078470    -0.051744143138574
    -0.002304999999989     0.007217500000024    -0.030166500000007
1 44
    -0.015457828265164    -0.010424773480503     0.021825791816160
     0.012880344537014     0.006315478229210    -0.048875918523336
     0.009035500000014     0.009762000000016    -0.012273000000011
1 45
     0.627137493871617    -0.104794934556693     0.207264584101045
     0.032283471535021    -2.346140233914415    -0.506584463958207
     0.124343500000013     0.654897500000025    -0.049755500000018
1 46
    -0.005492133441352    -0.026135237477519    -0.117834742599309
    -0.293437673071735    -0.116363984954821    -0.085161224613291
    -0.062028999999988     0.027624500000023     0.094861999999988
1 47
    -0.142801652589875    -0.010359060812332    -0.049691240433964
    -0.053868700319392    -0.077997173305091     0.261648356211310
    -0.049312999999991     0.061880000000023     0.034154999999984
1 48
    -0.080343947617423     0.075872829036850     0.049917617983874
     0.193039145851858    -0.153518524024983    -0.091082582277815
    -0.020896999999991     0.002136000000029     0.156432499999987
1 49
     0.022868857853456     0.474998348453695     0.080385192908029
    -0.071255398985850    -0.369006061484169    -0.276907642137870
     0.147248000000001    -0.062112500000008     0.033650000000007
1 50
    -0.233356060293980     0.128616328957908    -0.083670021381113
    -0.166928272963245    -0.404983134103125    -0.177942742521176
    -0.083755499999999     0.017217999999993     0.226464500000008
1 51
    -0.215921852168038    -0.143136733329316    -0.103351494833474
     0.183355285614225    -0.391177624592264     0.022679863317176
    -0.092644500000000    -0.039592500000005     0.123507500000006
1 52
     0.120192222608893    -0.366730865095636     0.024184893179485
     0.144324912825389    -0.391529301845905    -0.166384667178314
    -0.147549000000000    -0.218059500000010     0.047785000000005
1 53
    -0.002171846658453     0.008017277707593     0.001058079304657
     0.015268740947013    -0.007135255310162     0.003274193100069
     0.003188000000000    -0.001222500000008    -0.002013999999996
1 54
    -0.005420358243432     0.001056063594414     0.003130960793041
    -0.002806302732664    -0.003021248331710     0.001764249180140
    -0.001005500000000    -0.000075500000008     0.000423000000005
1 55
    -0.003484653850093    -0.006124686670419    -0.005428718848850
    -0.018072861081228    -0.010702914052458    -0.003527154731566
    -0.002551000000000    -0.005738500000007    -0.000681999999994
1 56
     0.004480003105518     0.001625464993110    -0.002562600952597
     0.004719923391336    -0.021674815388776    -0.017831146965145
     0.003548000000000    -0.009926500000009    -0.015406999999994
1 57
     0.035280161165530     0.017610148865868    -0.011554826108619
    -0.025947898293644    -0.007363448692627    -0.017407668503882
     0.002851500000000    -0.004585500000008    -0.012330499999996
1 58
     0.028377025933127    -0.013810022567916     0.029582728920873
     0.036423892456607    -0.012486158605831    -0.004614599549526
     0.004343500000000    -0.019547000000006    -0.018664499999995
1 59
     0.002479020005166    -0.002121537032891    -0.000543252028248
    -0.008053424060265    -0.015452200122525    -0.006351458535157
    -0.007762500000000    -0.011269500000008    -0.004294999999995
1 60
    -0.002121627539827     0.006093592985649     0.004570477861365
     0.012491909162543    -0.017475140762479    -0.002773058190744
     0.007956000000000    -0.010636500000007     0.002702000000006
1 61
    -4.017102152289036     1.020593420119214     0.309304367604486
     0.511783551673199    -7.865075118359117    -2.716921385564535
     0.433592000000001    -4.670772999999999    -6.229850999999996
1 62
    -0.139887452514666     0.058642735094806     0.098838498144225
     0.542696434943181    -0.019383432746460     0.145429838595881
     0.250298500000000    -0.027644500000005     0.068519500000006
1 63
    -0.009287974192065    -0.022932823743748     0.018055457551829
    -0.014858099097346     0.043838822705778     0.220624766957731
     0.021927000000000     0.004845499999991    -0.040236499999995
1 64
    -0.012769796264728    -0.071878507591844    -0.114780878580603
    -0.450484045427507    -0.051587387096987    -0.135695925414966
    -0.230534999999999    -0.039629500000004    -0.101807499999996
1 65
    -0.785260921910712    -0.687052178987261    -0.132964240286736
    -0.770733313105222    -0.889414403820158    -0.134614708094498
     0.728465499999992     0.075450000000002     0.294985000000015
1 66
     0.052609463727917    -0.018763540282452     0.032272007237910
     0.045763323258475     0.488525948909063     0.278023271826038
     0.080417999999995    -0.207373500000002    -0.043132999999980
1 67
     0.054499876053709     0.086146102804279     0.010518081684228
    -0.109510634967625     0.435265826516553     0.181141681830791
    -0.050248500000016    -0.108870500000001    -0.000677499999984
1 68
    -0.322874068348110     0.474855263624603    -0.173238817492726
     0.730597206907618    -0.897266239797839     0.113092044768235
    -0.979243500000017     0.311514000000002    -0.087380499999984
1 69
    -0.001507031446890     0.004258698777663     0.005232719193812
    -0.007100079398301     0.010055575895863     0.022832058352471
    -0.002405500000016     0.004655000000000     0.003149000000011
1 70
     0.007504287967699    -0.001399546969827    -0.000073693565560
    -0.005431887169255    -0.005133096178021     0.022022157506235
    -0.001039500000012     0.002164000000000     0.002345500000015
1 71
    -0.002997992263986    -0.006556774335877    -0.005017807870880
    -0.001485382029170     0.010498329706448     0.024405105737655
     0.003400999999982     0.003653500000000     0.002199500000014
1 72
    -0.003000311666636    -0.000446607211093    -0.001925769017885
    -0.004980688648153     0.041715222883514     0.030013182105039
    -0.000229500000010     0.009456000000000    -0.005667499999987
1 73
    -0.000209511891752    -0.000650347419555    -0.003308057297814
    -0.004639156583789     0.013034897713141     0.026694931300632
    -0.003123500000022     0.004599000000000     0.010591500000015
1 74
     0.000662248898260    -0.004487091527107     0.001601346692139
    -0.002313028188158     0.012348927552777     0.026528760847532
     0.002560999999986     0.007627500000000    -0.004657499999986
1 75
     0.000772297467173    -0.002753635336110    -0.000669973507254
    -0.003470654214615     0.020237892297968     0.022691789965929
    -0.001103500000013     0.009230000000000    -0.000558999999988
1 76
     0.000634935064982     0.006505604042273    -0.002262217691623
    -0.008826417068047     0.019146493482347     0.020831113707613
    -0.001119000000010     0.009264500000000     0.000949000000013
1 77
    -0.148913133078019     0.078416045025374     0.118267193185896
    -0.080636649925594    -0.180711362023448     0.439074417489605
    -0.067326000000016     0.182182500000000     0.369774500000013
1 78
     0.030204765912914    -0.037993157479004     0.030676424904660
    -0.109095304347141    -0.095200142881666    -0.001478595467935
    -0.009500500000016     0.004923000000000    -0.039549499999989
1 79
    -0.039919441408485     0.047937114615395    -0.008530723850879
    -0.003356148386382    -0.171925171389925     0.030841234800773
    -0.047742000000014    -0.063515000000000    -0.027484999999984
1 80
    -0.009833293743672    -0.157696308552778     0.021678054054508
     0.238881662518803     0.232353660884480     0.056919369371464
     0.069902999999982    -0.003016000000001    -0.119895499999988
1 81
    -1.965696701320165    -2.785529590222547     0.525478837766630
    -2.658582857983892    -3.444825694307724    -0.418335375685581
     0.043807000000005    -0.257498500000018    -3.753566000000010
1 82
     0.011613032436491     0.155829110961417     0.100810720319664
    -0.193284755908257    -0.736260741010376    -0.034564055240566
     0.163428499999999     0.058060499999961    -0.219406000000005
1 83
     0.119291334451542    -0.156257966712374     0.025509581694119
     0.160563178187086    -0.715542940138111     0.040711253682487
    -0.012837500000002    -0.025630000000028    -0.234495000000006
1 84
    -2.047157096644887     2.714716037152771     0.190139755922100
     2.641413125048325    -3.405310987082881     0.733543728815454
     0.722482999999994     0.755320999999981    -3.671156000000014
1 85
    -0.009014288331847    -0.010114023272518     0.007752014398528
    -0.021291818056098     0.047078426144882     0.026874960649111
     0.005513499999998     0.017990999999981     0.000379999999994
1 86
     0.000892132891414    -0.000113397304080    -0.004892004804130
    -0.011711755114920     0.087939671163834     0.036714089243701
    -0.011536000000002     0.012388499999965     0.008796999999996
1 87
    -0.000063871458646     0.001671390471754    -0.006910950476713
     0.004470995795538     0.042178025452920     0.038075210566964
    -0.001202500000002     0.012720499999979     0.004282499999993
1 88
     0.064981187874568     0.002768219036755     0.023771887121991
     0.018238347766673    -0.030426113954501    -0.061387984451485
     0.030933999999998    -0.017481500000038    -0.032838500000006
1 89
    -0.005081590090647     0.010665817230366    -0.004003197113246
     0.005809260403061     0.035570671507656     0.018718991718940
    -0.000993500000001     0.020002999999974     0.004983999999997
1 90
    -0.009453559892893    -0.015101778320219    -0.004488389859677
    -0.014761581740645     0.036493940428969     0.013855350390677
    -0.002219500000002     0.011872999999973     0.009087999999995
1 91
    -0.000350524715488    -0.000181706253866    -0.001726854254111
    -0.003917354783620     0.026058174521513     0.013362376191552
     0.005041499999999    -0.001658000000020     0.003911999999996
1 92
     0.003667312663152    -0.002192440957966     0.005335536938412
    -0.004932395774677     0.025279368236180     0.015274383990216
    -0.006054500000002    -0.002980500000035    -0.003422000000006
1 93
     0.753905911002374     0.055242218483007     0.109834736847773
     0.247134181815356    -0.225896162235617    -0.358659529184733
     0.246033999999998    -0.165221000000017    -0.068125500000006
1 94
    -0.169551575088897     0.019035406817750    -0.014493195591488
     0.150829863931208     0.152199935625962     0.085070093614795
     0.063136999999998     0.141288499999973     0.012567499999996
1 95
    -0.019094991858091    -0.047635366064567     0.023012920009750
     0.047009699564098     0.216062377294847    -0.081736411644485
     0.018511499999998     0.193589999999972    -0.048551500000006
1 96
    -0.089699354041598    -0.000320909755331    -0.035369936529237
    -0.220170952128450     0.068784129919891     0.053221341709016
    -0.118617000000002     0.058930999999966     0.021986999999996
1 97
     0.083676103259672     0.159241635262773     0.040861790051095
    -0.021635020140558     0.047922821187947     0.034814804449307
    -0.014340499999994    -0.124724500000001    -0.004075499999994
1 98
    -0.025145511015491    -0.011579091965655    -0.021350756978028
     0.049355419936858     0.081411331233805     0.000903197773883
     0.051120500000005    -0.015683000000001    -0.068039499999992
1 99
    -0.027483614613689    -0.001574797266079     0.008033292580730
    -0.017348652952097     0.081968453541492    -0.045466927729422
    -0.021277999999995     0.032476999999998    -0.050533499999991
1 100
     0.082828962414498    -0.109397501195243    -0.027979769745829
    -0.027251676881350     0.060401723283198     0.024044090686729
    -0.009875999999995    -0.111858000000002    -0.006969999999994
1 101
     0.000716020516904    -0.000898889276383    -0.004657086726125
     0.001782786067737     0.041343316209429    -0.009914631550771
     0.002095500000005     0.008327999999999     0.003895500000008
1 102
    -0.004133284491087    -0.000999562073344    -0.002239633057555
     0.003110932807578     0.046258402316284    -0.007769349339829
     0.000471000000005     0.006180499999999     0.000930000000006
1 103
    -0.004295906806855    -0.005473844728194     0.000350682845651
     0.000812327663682     0.046160670078198    -0.010369571684446
     0.000236500000005     0.007014499999999     0.003152000000007
1 104
     0.001597302844306    -0.000777058324466     0.000668188485205
    -0.003629184404528     0.037443013095761    -0.000913128155086
     0.000618000000005     0.007906999999999    -0.002725499999991
1 105
    -0.011429360702438    -0.011724745585382     0.018960231315732
    -0.023443968760822     0.052719620545703    -0.032164630485718
     0.002343500000006     0.014295999999999     0.014911500000007
1 106
     0.001786630338913    -0.001469384355164    -0.019845870206667
     0.017684527136900     0.063075305048928    -0.014819205132714
    -0.009530999999994     0.011065499999999     0.014059000000007
1 107
     0.000235749092431     0.005481800026963     0.017730326752740
     0.000692371711427     0.036876986198698    -0.003596933368408
    -0.007994499999995     0.005920999999999     0.024656000000009
1 108
     0.000993502338051    -0.004859908711752    -0.019633704424986
     0.010181048165887     0.034875554873768     0.002528635409726
     0.007478500000005     0.001370499999998     0.015503000000008
1 109
     0.523492893416834    -0.273773603926052     0.039599434663947
    -0.214878644778926    -3.128119347941492     0.540585221325462
     0.068342000000005     1.123673500000007     0.376306500000004
1 110
     0.339463999641942     0.366320828960095    -0.073267421496111
     0.119563085833200     0.183518892704370    -0.183372941992411
    -0.019989999999995    -0.171699000000002    -0.033879999999993
1 111
     0.261679190446447     0.056381082401098     0.026269064065225
    -0.166946271491248    -0.003916101719041    -0.094131966311639
     0.066725500000006    -0.198288000000002     0.049532000000010
1 112
     0.201293475357662    -0.320864444811656     0.128902610830562
    -0.270771341185237     0.228680127827738    -0.231597386749533
     0.185213500000005    -0.271059000000002     0.075790500000007
1 113
    -0.021861543631521    -0.037443971191227     0.042404082861024
     0.064297924537772    -0.054559871876815     0.037475837243709
     0.087825999999998     0.056158000000007     0.011556999999998
1 114
    -0.037387694134216     0.032383369312335    -0.002083221458491
     0.000786495376824    -0.098470585699541     0.017647818911199
    -0.043346500000001    -0.002209999999993     0.032575999999999
1 115
    -0.045878544747625    -0.018260939271448    -0.049578177413943
     0.033922795588873    -0.107240000892332     0.042277136110461
     0.025071999999999    -0.022451499999994     0.028350999999998
1 116
    -0.000867101817486     0.002291284059118     0.003039059822334
    -0.013625961045074    -0.034591204480575     0.000633545683676
    -0.044474000000001    -0.042840999999994    -0.031108500000002
1 117
    -0.001990405138926    -0.000053610049368     0.002079828118433
     0.002002563543978    -0.008430352514140     0.013599566367931
     0.000555999999999    -0.003774999999992     0.001163499999998
1 118
     0.001795958852129    -0.002029975476755    -0.001256782534581
    -0.002749405526584    -0.011054197492423     0.011792343311969
    -0.000675500000001    -0.000294499999990    -0.000686500000002
1 119
     0.001612604075405     0.003993769346263    -0.003200443812549
    -0.006378852263973    -0.008693939738942     0.009565074032507
    -0.002115500000001    -0.002875999999995    -0.000613000000002
1 120
     0.007140876844215    -0.000103517452966     0.001893807849463
    -0.000003552258039    -0.010854553452874     0.006655691216984
     0.003066999999999    -0.003032499999993     0.001678999999998
1 121
     0.030281154699163     0.036139574076122     0.007555355441614
    -0.007297867573595     0.005357486047857     0.006948420942791
    -0.026331500000001    -0.030266999999993     0.011163499999998
1 122
     0.008830700926634    -0.020524893912002    -0.016107674891857
     0.012188740410506    -0.020719464046832     0.017568602756272
     0.022622999999999    -0.014195999999993     0.022455499999998
1 123
    -0.013500959523079    -0.012757827631479     0.014648877359545
    -0.003799641881339    -0.015276524472158     0.030989802630546
    -0.006607500000001    -0.020058499999994     0.013235499999998
1 124
     0.004909456886411     0.011244578024171    -0.022950512594994
    -0.012873585442794    -0.017476802777495     0.026289890825288
    -0.009669500000001    -0.015254499999992     0.006806499999998
1 125
    -3.055741858664798    -0.501716717590690     0.663131561260204
    -0.507383337596282    -2.912583687133134     2.518340416379081
     0.639573500000001     2.324695500000017    -6.088973500000015
1 126
     0.415752183042018    -0.235183585792342    -0.168936530421395
     0.356172794101851    -0.329771903397793     0.155296370429701
    -0.112512000000002     0.133032500000006    -0.037964000000002
1 127
     0.183956858334416    -0.055913670922783     0.049592991613346
     0.096889753695864     0.037467892024986    -0.073183654321302
    -0.001704500000002     0.140420500000006    -0.029160000000001
1 128
     0.188502669169768     0.095910643618459     0.438289079682124
    -0.437487010256968    -0.318550706097021    -0.052827079509453
     0.166575500000000     0.218923000000006     0.125797499999999
2 1
    -2.125496395625683    -0.547755550554566    -0.219817162444467
     0.688910221342817     0.486712617717380    -0.047527510349994
    -0.812536500000001    -0.292627999999990     0.042594000000001
2 2
    16.468364204017867    -0.366495958681830    -0.541767195490274
    -0.365665468857691    27.358123063845866     1.594674178644216
    -0.543146000000001     1.590485499999961    18.992840000000022
2 3
    -2.125361383705522     0.689072452482592    -0.812731572493438
    -0.547623502324363     0.486522945248771    -0.292470468859382
    -0.220168999999998    -0.047378499999990     0.042610500000002
2 4
     0.062764891252164    -0.027799461676936    -0.004578026233788
    -0.027917375425561     0.597221929883478     0.144505718026881
    -0.004611499999998     0.144412000000010     0.068162000000001
2 5
     0.098910807991359    -0.176940303219808    -0.096312004466804
    -0.146188864965810    -0.067633580157354     0.007797145821627
    -0.006961999999998    -0.070812499999988     0.002001000000001
2 6
     0.037854517044558     0.194860938883724     0.082073232515397
     0.127734269046348    -0.056211025561471     0.060713320375606
     0.029390000000001    -0.038652999999989     0.064687000000001
2 7
     0.025330818406394     0.016807535602705    -0.001479504658908
     0.047831590852968    -0.180694705543335    -0.095433331713772
     0.024921500000001    -0.037523499999985    -0.003085499999999
2 8
     0.025069017226296     0.014793270776614     0.017730187280339
    -0.000587959817754    -0.201815514044581    -0.116248802560829
    -0.007748999999999    -0.053202499999987    -0.015126499999999
2 9
     0.000845643216677     0.003668266606584     0.001589240510552
     0.004413864791992    -0.077017774699545    -0.015037787577913
     0.001384000000002    -0.008895499999987     0.001478000000001
2 10
    -0.001255866317796     0.000768599847939    -0.003295995786853
     0.000706593575749    -0.072802421429028    -0.009378698762394
    -0.003379999999999    -0.009357999999988     0.000092500000001
2 11
     0.000827659305264     0.004433334899485     0.001420765383840
     0.003699188493186    -0.076897858469804    -0.008832600864847
     0.001541000000001    -0.015150499999987     0.001686500000001
2 12
    -0.001442455164723     0.006242186976789     0.001481673002181
     0.006257717842957    -0.074735197759187    -0.008597864768294
     0.001441000000001    -0.008656499999987     0.001310000000001
2 13
     0.025303009402634     0.047882812751905     0.025109325874570
     0.016683800096956    -0.180728430960572    -0.037414327302711
    -0.001432999999999    -0.095388999999983    -0.003286499999999
2 14
     0.037753933909796     0.127761033877173     0.029482498263630
     0.194864204558819    -0.056143325691380    -0.038510037288444
     0.082062000000001     0.060726500000008     0.064708500000002
2 15
     0.098921848083743    -0.146368769417751    -0.007029489727236
    -0.176858486674564    -0.067482486932398    -0.070831859189291
    -0.096524499999998     0.007600500000009     0.002233000000002
2 16
     0.025159715449894    -0.000617840722235    -0.007803870006874
     0.014719578876776    -0.201664279448758    -0.053378135940917
     0.017719500000001    -0.116353499999985    -0.015097999999999
2 17
    -0.065614077769475     0.003575534014976    -0.013139857924803
    -0.047225580614417    -0.073773325664479     0.066533789433215
     0.092567500000001    -0.000836500000001     0.004786999999993
2 18
     0.096391845481718    -0.036320764133409    -0.014528035170235