 128  128
1 1
    33.200060040670898    -8.347723336870043    -0.000000000000000
    -8.346808887072209    29.073069569529821    -0.000000000000000
     0.000000000000004     0.000000000000016    11.065620959666633
1 2
    -0.610232944320188    -0.189321524335297    -0.000000000000000
    -0.247515892429417     0.092873954040447    -0.000000000000000
     0.000000000000003    -0.000000000000003     0.370729999755106
1 3
    -0.139134756419717     0.008035318719351    -0.000000000000000
     0.007444499777540     0.001218877386108    -0.000000000000000
     0.000000000000003    -0.000000000000005     0.014941276442507
1 4
    -0.609787306949130    -0.247240023716295    -0.000000000000000
    -0.190601356236653     0.092940616678667    -0.000000000000000
     0.000000000000003    -0.000000000000002     0.370734500817448
1 5
     0.014187575958232    -0.091263866947981    -0.000000000000000
     0.062987084803119     0.043174808535151     0.000000000000000
     0.000000000000003    -0.000000000000004    -0.017203060269095
1 6
    -0.028581304072007     0.004697397375024    -0.000000000000000
    -0.064541072151254    -0.071964700915785    -0.000000000000000
     0.000000000000003    -0.000000000000004     0.001159023552928
1 7
     0.116813401011129    -0.124929744707035    -0.000000000000000
     0.024323491790353     0.029017751028110    -0.000000000000000
     0.000000000000003    -0.000000000000002     0.001069002306099
1 8
     0.025812096012495     0.013373223662214    -0.000000000000000
     0.003384263259416    -0.036931347598327    -0.000000000000000
     0.000000000000003    -0.000000000000005     0.035972490233021
1 9
    -0.042910930147366     0.037457641535357    -0.000000000000000
     0.036712585297840    -0.049081170380634    -0.000000000000000
     0.000000000000003    -0.000000000000002     0.000126029745561
1 10
     0.139462446040092    -0.033695108288573    -0.000000000000000
    -0.077037206482661     0.050524625961726    -0.000000000000000
     0.000000000000003    -0.000000000000004     0.001521359071417
1 11
    -0.106915533463603     0.024024931181495    -0.000000000000000
     0.023662843366317    -0.065794269433599     0.000000000000000
     0.000000000000003    -0.000000000000004    -0.002945945302492
1 12
     0.139752187253727    -0.076894754016958    -0.000000000000000
    -0.034704649828524     0.050766527529411    -0.000000000000000
     0.000000000000003    -0.000000000000004     0.001478598979173
1 13
     0.014082961431539     0.064320498161544    -0.000000000000000
    -0.091910127712878     0.043000609502848     0.000000000000000
     0.000000000000003    -0.000000000000002    -0.017234567705485
1 14
     0.025632097488627     0.004804575983253    -0.000000000000000
     0.013336864118251    -0.037378304233178    -0.000000000000000
     0.000000000000004    -0.000000000000004     0.035904974297899
1 15
     0.116906220762754     0.025084922488719    -0.000000000000000
    -0.125069116867337     0.028815645959461    -0.000000000000000
     0.000000000000003    -0.000000000000002     0.001123015054197
1 16
    -0.028445920566875    -0.063867168545876    -0.000000000000000
     0.003945359064315    -0.071939281182828    -0.000000000000000
     0.000000000000003    -0.000000000000004     0.001199533114002
1 17
     0.219321791129650    -0.175240101352680    -0.000000000000000
    -0.174143395741713    -0.091788764812232     0.000000000000000
    -0.000000000000003     0.000000000000003    -0.008083907965279
1 18
     0.299958565741099     0.107777064859897    -0.000000000000000
     0.109131159242197    -0.011339573962658     0.000000000000000
    -0.000000000000003     0.000000000000002    -0.000281316396342
1 19
     0.128312793886405    -0.057709783143921    -0.000000000000000
    -0.056968311813207     0.044062278384335     0.000000000000000
    -0.000000000000003     0.000000000000002    -0.006522039332789
1 20
     0.289063783292150    -0.020042912555179    -0.000000000000000
    -0.019618807242058    -0.444258569942834    -0.000000000000000
    -0.000000000000003     0.000000000000003     0.308223747019124
1 21
     0.029571039545129    -0.059712843640302    -0.000000000000000
    -0.058832227260830     0.026898643276161     0.000000000000000
    -0.000000000000003     0.000000000000004    -0.001035244338538
1 22
    -0.068938409008934     0.020551626332037    -0.000000000000000
     0.021867775952493     0.014505079466521    -0.000000000000000
    -0.000000000000003     0.000000000000005     0.001030743276196
1 23
     0.202723465710720     0.007263530176838    -0.000000000000000
     0.007831789255033    -0.029153619158484     0.000000000000000
    -0.000000000000003     0.000000000000004    -0.000616645540781
1 24
    -0.127974847939884     0.064446138156836    -0.000000000000000
     0.064622853024952     0.009201160953380    -0.000000000000000
    -0.000000000000003     0.000000000000005     0.003981189641029
1 25
    -0.172099614286669     0.125029743886962    -0.000000000000000
     0.125611902188161    -0.014532982307521     0.000000000000000
    -0.000000000000003     0.000000000000004    -0.005018684510738
1 26
    -0.073111195301572    -0.063138456573179    -0.000000000000000
    -0.062085272710032     0.080263595596718    -0.000000000000000
    -0.000000000000003     0.000000000000005     0.006981147691619
1 27
    -0.003684585168073     0.004716371578395    -0.000000000000000
     0.005158748202891    -0.000792111771305    -0.000000000000000
    -0.000000000000003     0.000000000000004     0.001930955744490
1 28
     0.093656667837922    -0.035724835232933    -0.000000000000000
    -0.035680348692213    -0.031046845334282    -0.000000000000000
    -0.000000000000003     0.000000000000002     0.001350318702441
1 29
    -0.175158050743508     0.653877201787018    -0.000000000000000
     0.654927350243962    -2.102045183571289    -0.000000000000000
    -0.000000000000002     0.000000000000002     0.921164913493369
1 30
    -0.109505255815554     0.061134370444184    -0.000000000000000
     0.062322005593097     0.037390989690472    -0.000000000000000
    -0.000000000000003     0.000000000000004     0.058126719077733
1 31
    -0.436506163890402     0.100032000170487    -0.000000000000000
     0.100542852204952     0.027207773467137     0.000000000000000
    -0.000000000000003     0.000000000000004    -0.008675797663182
1 32
     0.297774481088236    -0.343221800691592    -0.000000000000000
    -0.343191912835606     0.044830962624820    -0.000000000000000
    -0.000000000000003     0.000000000000004     0.046250666089766
1 33
    -2.530985397743464     2.733891426059593    -0.000000000000000
     2.421991137579361    -1.123690377880614    -0.000000000000000
     0.000000000000016    -0.000000000000022     1.815420225778264
1 34
     0.109652434095757     0.120324141451022    -0.000000000000000
     0.035351471769751    -0.090170736307954    -0.000000000000000
     0.000000000000043    -0.000000000000028     0.034502893378532
1 35
    -0.067774828807636     0.292903238985033    -0.000000000000000
     0.038079954682154    -0.083628080083312    -0.000000000000000
     0.000000000000028    -0.000000000000021     0.004777877675470
1 36
    -0.440211774527071     0.369809274960751    -0.000000000000000
    -0.315723907629135    -0.204739793457840     0.000000000000000
     0.000000000000028    -0.000000000000021    -0.051408883533090
1 37
    -0.065577410930779    -0.157855628534630    -0.000000000000000
     0.069996935750467    -0.015091285600860    -0.000000000000000
     0.000000000000028    -0.000000000000021     0.028012361482133
1 38
     0.069648146778256    -0.285673041868169    -0.000000000000000
     0.024749752334067    -0.068676094182980    -0.000000000000000
     0.000000000000043    -0.000000000000028     0.008972867777719
1 39
     0.006962507004452     0.010675297069422    -0.000000000000000
    -0.028175652109290    -0.016056366504088     0.000000000000000
     0.000000000000028    -0.000000000000021    -0.002205520547320
1 40
     0.139198858458130    -0.130657390043464    -0.000000000000000
    -0.027869205597455     0.060778998622329     0.000000000000000
     0.000000000000043    -0.000000000000021    -0.117630763231955
1 41
     0.054847242516480     0.095662292415838    -0.000000000000000
    -0.033084708856244    -0.011045836250858     0.000000000000000
     0.000000000000014    -0.000000000000021     0.000038259029902
1 42
    -0.067438421310030     0.029198222089711    -0.000000000000000
     0.080389034549519    -0.019070863290136     0.000000000000000
     0.000000000000028    -0.000000000000021    -0.000110276027366
1 43
     0.105751953262299    -0.103769405418209    -0.000000000000000
    -0.032289112323696     0.012388375234536     0.000000000000000
     0.000000000000028    -0.000000000000021    -0.000555881199171
1 44
    -0.022423405853750    -0.035719707069862    -0.000000000000000
    -0.017924344413984    -0.055279511909923     0.000000000000000
     0.000000000000028    -0.000000000000021    -0.002882930429711
1 45
     0.008929670359308    -0.136326061504541    -0.000000000000000
    -0.052122818798864    -0.079813252960363    -0.000000000000000
     0.000000000000043    -0.000000000000021     0.011153632482161
1 46
     0.015396796810883     0.162215592779440    -0.000000000000000
    -0.011586282385068    -0.062682652937241    -0.000000000000000
     0.000000000000043    -0.000000000000021     0.002149257268052
1 47
    -0.073713241646360    -0.082414708748924    -0.000000000000000
     0.080661421158275     0.044639675442721    -0.000000000000000
     0.000000000000014    -0.000000000000021     0.001186029926977
1 48
    -0.005503544610129    -0.021637258454625    -0.000000000000000
    -0.084108742947407    -0.015864645183335    -0.000000000000000
     0.000000000000028    -0.000000000000021     0.007316476836058
1 49
     0.078220384171374     0.726081225040947    -0.000000000000000
    -0.025653576831900     0.470420150805003     0.000000000000000
    -0.000000000000028    -0.000000000000002    -0.180710901416474
1 50
    -0.056411332253791     0.181797996290649    -0.000000000000000
    -0.050139218847782     0.011024332019988     0.000000000000000
    -0.000000000000028    -0.000000000000003    -0.006432018085959
1 51
    -0.160477145497630     0.188254866416078    -0.000000000000000
     0.092561905604697    -0.044010440232759    -0.000000000000000
    -0.000000000000043    -0.000000000000003     0.003969936985176
1 52
     0.609948844085935     1.837084934435584    -0.000000000000000
     1.389766846716849    -1.931050989701331    -0.000000000000000
    -0.000000000000042    -0.000000000000003     0.564577251615158
1 53
     0.007785577177685     0.064691777168042    -0.000000000000000
    -0.014744324777805    -0.120897049030849     0.000000000000000
    -0.000000000000028    -0.000000000000002    -0.000114777089707
1 54
    -0.000300510356087     0.031479741840962    -0.000000000000000
     0.007995550131525     0.107233694677603    -0.000000000000000
    -0.000000000000028    -0.000000000000002     0.000749426879855
1 55
    -0.088681324024336     0.067756367420568    -0.000000000000000
    -0.016729701893922     0.025667413936244     0.000000000000000
    -0.000000000000014    -0.000000000000002    -0.001318811266050
1 56
    -0.022742377596892    -0.138604504357951    -0.000000000000000
     0.036706336257634     0.069106315313459    -0.000000000000000
    -0.000000000000028    -0.000000000000002     0.005500298181275
1 57
    -0.032828448729209    -0.197550687618813    -0.000000000000000
     0.048367396775433     0.129428763372166     0.000000000000000
    -0.000000000000014    -0.000000000000001    -0.005864884230934
1 58
     0.101632499865620     0.008021985495360    -0.000000000000000
    -0.023340005209548    -0.104037166536183     0.000000000000000
    -0.000000000000014    -0.000000000000002    -0.001791422811905
1 59
    -0.020420345357362     0.044662197836854    -0.000000000000000
     0.045170875212115     0.041335319494787     0.000000000000000
    -0.000000000000028    -0.000000000000002    -0.002873928305028
1 60
    -0.104460681800482     0.010028122889584    -0.000000000000000
     0.024757078789424     0.077383191589123     0.000000000000000
    -0.000000000000014    -0.000000000000003    -0.002815414494589
1 61
     0.252898951667540    -0.115986741123734    -0.000000000000000
    -0.711792159221240     0.450013769141298     0.000000000000000
    -0.000000000000015    -0.000000000000002    -0.413942448764381
1 62
     0.119417482219685    -0.265074749252167    -0.000000000000000
     0.003637650011942     0.115168743393516     0.000000000000000
    -0.000000000000043    -0.000000000000002    -0.023450534799054
1 63
     0.573324016233659    -0.134500948266800    -0.000000000000000
    -0.074999762697821    -0.014698251562496     0.000000000000000
    -0.000000000000014    -0.000000000000003    -0.030796268540332
1 64
     0.223733549821500     0.249676926808665    -0.000000000000000
     0.467555145500189     0.186081659132289     0.000000000000000
    -0.000000000000028    -0.000000000000003    -0.025109176271886
1 65
   -11.574604566173164     0.001168708364376    -0.000000000000000
    -0.326352725079701    -1.734309955548017     0.000000000000000
    -0.000000000000028     0.000000000000000    -5.216569215518451
1 66
     0.368859539159594    -0.113362147262885    -0.000000000000000
    -0.006631393878230     0.004579198322024     0.000000000000000
    -0.000000000000043     0.000000000000001    -0.140730215168374
1 67
     0.122386175822747    -0.148831087158467    -0.000000000000000
    -0.013593505434962     0.025978265247763    -0.000000000000000
    -0.000000000000028     0.000000000000001     0.000265562678147
1 68
    -2.879685615046128    -0.721651517778342    -0.000000000000000
    -0.386921001062419     1.664994033864021    -0.000000000000000
    -0.000000000000029     0.000000000000002     0.389263123946106
1 69
     0.194314816719647     0.168806820777387    -0.000000000000000
    -0.223086541378436    -0.011271456238820    -0.000000000000000
    -0.000000000000043     0.000000000000001     0.001053248587904
1 70
     0.134662485403609     0.157652040460627    -0.000000000000000
     0.180253615567757     0.065981666604733     0.000000000000000
    -0.000000000000028     0.000000000000001    -0.001336815515416
1 71
     0.102846848881349     0.049481645493019    -0.000000000000000
     0.020465459322665     0.042729647536960    -0.000000000000000
    -0.000000000000028     0.000000000000001     0.002468832694296
1 72
    -0.071143006314088    -0.019546506369695    -0.000000000000000
     0.048088344461952    -0.005361720502862     0.000000000000000
    -0.000000000000043     0.000000000000000    -0.003346539850882
1 73
    -0.104746320483649    -0.114097525847578    -0.000000000000000
     0.049455566735041     0.031900974463964     0.000000000000000
    -0.000000000000043     0.000000000000001    -0.000753927942196
1 74
    -0.065847152308422    -0.004495860566248    -0.000000000000000
    -0.079985938474351    -0.044691208795264    -0.000000000000000
    -0.000000000000043     0.000000000000001     0.001332314453075
1 75
     0.046465772789688     0.001798446789761    -0.000000000000000
     0.064449968382661     0.031851508617972    -0.000000000000000
    -0.000000000000028     0.000000000000001     0.000283566927513
1 76
    -0.021439311360005     0.030625902689280    -0.000000000000000
     0.037087851949664     0.050424436774624    -0.000000000000000
    -0.000000000000043     0.000000000000000     0.000981231590440
1 77
    -0.156959225629450     0.012976303840350    -0.000000000000000
     0.176691816597568     0.118261312187623     0.000000000000000
    -0.000000000000028     0.000000000000001    -0.025322976733105
1 78
    -0.173481654234884    -0.152909515250559    -0.000000000000000
     0.045895731466814     0.056993310425197     0.000000000000000
    -0.000000000000043     0.000000000000001    -0.007606795357083
1 79
    -0.230855029881212     0.076143478126738    -0.000000000000000
     0.034686821740785    -0.069344659847385     0.000000000000000
    -0.000000000000043     0.000000000000001    -0.003306030289809
1 80
     0.186508214073363     0.073864522457021    -0.000000000000000
     0.012840305615192     0.108961079296519     0.000000000000000
    -0.000000000000043     0.000000000000001    -0.025719070219155
1 81
     0.033464340950275     0.288500198170404    -0.000000000000000
    -0.063137248325496    -0.034511105463999    -0.000000000000000
    -0.000000000000043     0.000000000000028     0.006974396098106
1 82
     0.033373572463880    -0.015005005152094    -0.000000000000000
    -0.015874137562960     0.157458164897164     0.000000000000000
    -0.000000000000043     0.000000000000021    -0.004276009224396
1 83
    -0.003717918228048     0.061831287805823    -0.000000000000000
     0.048242722185705    -0.084719965097008    -0.000000000000000
    -0.000000000000028     0.000000000000021     0.005545308804690
1 84
    -0.039811468385942    -0.079754730562865    -0.000000000000000
     0.026861199062978     0.046521341479608    -0.000000000000000
    -0.000000000000043     0.000000000000021     0.044477247527227
1 85
    -0.054753397132238    -0.058714390289953    -0.000000000000000
     0.029883539222887     0.058141876590444    -0.000000000000000
    -0.000000000000043     0.000000000000028     0.000411847204244
1 86
     0.064307677753867     0.004997907731116    -0.000000000000000
    -0.065383110561243    -0.031387193557638     0.000000000000000
    -0.000000000000043     0.000000000000021    -0.002192017360295
1 87
    -0.086364419947870     0.032515117965435    -0.000000000000000
     0.006761657358986     0.088726624162913    -0.000000000000000
    -0.000000000000028     0.000000000000021     0.001579872881856
1 88
     0.042693496033060     0.019092663937720    -0.000000000000000
     0.026927713407645    -0.057761604019529     0.000000000000000
    -0.000000000000028     0.000000000000021    -0.000213800461220
1 89
     0.056634920163788    -0.029462322487973    -0.000000000000000
     0.046250628541813     0.020380854054409    -0.000000000000000
    -0.000000000000043     0.000000000000028     0.003688620588834
1 90
    -0.036210985092261    -0.045210911285679    -0.000000000000000
     0.017529563560920     0.040446102098997     0.000000000000000
    -0.000000000000043     0.000000000000021    -0.018506117816950
1 91
     0.054531860487479    -0.031217692707926    -0.000000000000000
    -0.075102698160144     0.021009059054968     0.000000000000000
    -0.000000000000028     0.000000000000036    -0.003393801005468
1 92
    -0.047366791041647     0.139042962300707    -0.000000000000000
     0.052805994107153     0.121807872698884    -0.000000000000000
    -0.000000000000028     0.000000000000021     0.003477070658785
1 93
    -0.876255378108276     1.532114102106764    -0.000000000000000
     0.978751568321364   -13.597960208772530     0.000000000000000
    -0.000000000000042     0.000000000000012    -5.361501172382586
1 94
    -0.098159195016166     0.110554477980330    -0.000000000000000
    -0.056604810446217    -0.127282185916016     0.000000000000000
    -0.000000000000043     0.000000000000021    -0.064903068432814
1 95
     0.020917264359156     0.036153036849544    -0.000000000000000
    -0.021072885980871    -0.077172948714772     0.000000000000000
    -0.000000000000043     0.000000000000035    -0.016878983780509
1 96
    -0.218661283725829     0.549251393135584    -0.000000000000000
     0.216233415216102    -0.303076612030321     0.000000000000000
    -0.000000000000042     0.000000000000021    -0.091232032599238
1 97
   -12.902106500109358     4.282546930975176    -0.000000000000000
     5.019924899203602    -9.020962930221323     0.000000000000000
     0.000000000000032    -0.000000000000004    -5.368047967558253
1 98
    -0.739739574570027    -1.014977317400604    -0.000000000000000
    -0.516298988182317    -0.694670947761157    -0.000000000000000
     0.000000000000014     0.000000000000001     0.668155698217046
1 99
    -0.010805039595162    -0.167105296269709    -0.000000000000000
    -0.048454275556871     0.009264725690205    -0.000000000000000
     0.000000000000028     0.000000000000002     0.000261061615805
1 100
     0.247512329175482    -0.149863386385097    -0.000000000000000
    -0.111528144292492    -0.025933410573496     0.000000000000000
     0.000000000000014     0.000000000000002    -0.028761788361988
1 101
    -0.095504857809491     0.117379550214407    -0.000000000000000
     0.045288471223895    -0.055792468894337     0.000000000000000
     0.000000000000043     0.000000000000002    -0.004575329870103
1 102
    -0.207306505049214    -0.026643884062963    -0.000000000000000
     0.028611754989985     0.112526471520536     0.000000000000000
     0.000000000000028     0.000000000000002    -0.001476348448002
1 103
    -0.204926524566950    -0.001794857075610    -0.000000000000000
    -0.073527385143478    -0.099592198842772     0.000000000000000
     0.000000000000014     0.000000000000002    -0.003778641835663
1 104
    -0.087792613363749    -0.066912784595032    -0.000000000000000
    -0.055261432061080    -0.025611579714849     0.000000000000000
     0.000000000000028     0.000000000000001    -0.014900766881434
1 105
     0.000990761105733    -0.007060967735448    -0.000000000000000
    -0.047866675604968    -0.057746479369022     0.000000000000000
     0.000000000000014     0.000000000000003    -0.000297070114537
1 106
     0.019677274528064     0.154313606299993    -0.000000000000000
     0.035111636078163    -0.117515359439571    -0.000000000000000
     0.000000000000028     0.000000000000002     0.001411083044051
1 107
     0.025395176354643    -0.019568557470910    -0.000000000000000
     0.018432038209063     0.081485194741475     0.000000000000000
     0.000000000000028     0.000000000000003    -0.002439575789076
1 108
    -0.085079815098045     0.014627059533603    -0.000000000000000
    -0.012425271507798    -0.057346811211647    -0.000000000000000
     0.000000000000028     0.000000000000003     0.000146284526098
1 109
    -0.104327349560581    -0.315273311942815    -0.000000000000000
     0.047667848358920    -0.162503581073858     0.000000000000000
     0.000000000000028     0.000000000000003    -0.011216647354941
1 110
    -0.006263025561257     0.104863242601720    -0.000000000000000
    -0.122701929244993    -0.317461757603312    -0.000000000000000
     0.000000000000043     0.000000000000002     0.017554143131730
1 111
     0.097844838619778     0.192094322108960    -0.000000000000000
     0.046361168354117    -0.122904601052161    -0.000000000000000
     0.000000000000028     0.000000000000003     0.004120722573615
1 112
     0.085039302609768    -0.025982351026524    -0.000000000000000
     0.014922806850368     0.023556423140398    -0.000000000000000
     0.000000000000014     0.000000000000003     0.011849046613918
1 113
    -0.483105781736292    -0.422206281160867    -0.000000000000000
     0.621900143308558     0.016238056396204     0.000000000000000
     0.000000000000043    -0.000000000000001    -0.122847494485717
1 114
    -0.601562246196067    -0.195069682324013    -0.000000000000000
    -0.231196968161079    -0.219943695270280     0.000000000000000
     0.000000000000028    -0.000000000000001    -0.026398730632717
1 115
    -0.080297803032316    -0.056130308917384    -0.000000000000000
     0.003149833034136     0.035057831225228     0.000000000000000
     0.000000000000028    -0.000000000000001    -0.004041953982639
1 116
    -0.083858286654021     0.042424267471722    -0.000000000000000
     0.019511234847982    -0.024455831980495     0.000000000000000
     0.000000000000043    -0.000000000000001    -0.061007398976273
1 117
     0.127938437982060     0.111092422286700    -0.000000000000000
    -0.060904756943081    -0.082036639935251     0.000000000000000
     0.000000000000043    -0.000000000000001    -0.002936943177809
1 118
     0.007083531652967    -0.044232457771322    -0.000000000000000
     0.083225538857313     0.076475938309586    -0.000000000000000
     0.000000000000043    -0.000000000000001     0.000022505311707
1 119
    -0.089074654132041     0.012079388118852    -0.000000000000000
    -0.018318155749377    -0.068049086773907     0.000000000000000
     0.000000000000014    -0.000000000000001    -0.000519872700440
1 120
     0.050256510933373    -0.026915676705841    -0.000000000000000
    -0.056086997297868     0.033408571022131     0.000000000000000
     0.000000000000043    -0.000000000000001    -0.001300807016685
1 121
     0.107962704363139     0.005335340861326    -0.000000000000000
    -0.121912706309431    -0.038627583545446    -0.000000000000000
     0.000000000000014    -0.000000000000001     0.002583609784003
1 122
     0.214897724846423     0.115148799277578    -0.000000000000000
    -0.114236344786995    -0.084542013419788    -0.000000000000000
     0.000000000000028    -0.000000000000001     0.003137240452004
1 123
    -0.048324219087405    -0.021934179096563    -0.000000000000000
     0.090585325113089     0.057359710731136    -0.000000000000000
     0.000000000000028    -0.000000000000001     0.001829681841807
1 124
     0.007600963307056    -0.031381793926265    -0.000000000000000
     0.015446462777618    -0.086340399519398     0.000000000000000
     0.000000000000028    -0.000000000000001    -0.000582887573220
1 125
    -1.102939160145773    -0.869154410700858    -0.000000000000000
    -0.080421163341370    -0.392984807779867    -0.000000000000000
     0.000000000000043    -0.000000000000001     0.644291065682577
1 126
    -0.118197492224581    -0.084301359943537    -0.000000000000000
     0.223737225834668     0.276550549165828    -0.000000000000000
     0.000000000000043    -0.000000000000001     0.013710235892115
1 127
     0.171119622323388    -0.003203050655502    -0.000000000000000
    -0.156283263200613    -0.002762264995459    -0.000000000000000
     0.000000000000043    -0.000000000000000     0.015121318936166
1 128
    -0.171513978063714    -0.229848884286253    -0.000000000000000
    -0.019428140748410    -0.014320726351764     0.000000000000000
     0.000000000000028    -0.000000000000001    -0.004381784189420
2 1
    -0.609787306949130    -0.247240023716295     0.000000000000000
    -0.190601356236653     0.092940616678667    -0.000000000000000
     0.000000000000003    -0.000000000000002     0.370734500817448
2 2
    33.200060040670898    -8.347723336870043     0.000000000000000
    -8.346808887072209    29.073069569529821    -0.000000000000000
     0.000000000000004     0.000000000000016    11.065620959666633
2 3
    -0.610232944320188    -0.189321524335297     0.000000000000000
    -0.247515892429417     0.092873954040447    -0.000000000000000
     0.000000000000003    -0.000000000000003     0.370729999755106
2 4
    -0.139134756419717     0.008035318719351     0.000000000000000
     0.007444499777540     0.001218877386108    -0.000000000000000
     0.000000000000003    -0.000000000000005     0.014941276442507
2 5
     0.025812096012495     0.013373223662214     0.000000000000000
     0.003384263259416    -0.036931347598327    -0.000000000000000
     0.000000000000003    -0.000000000000005     0.035972490233021
2 6
     0.014187575958232    -0.091263866947981     0.000000000000000
     0.062987084803119     0.043174808535151     0.000000000000000
     0.000000000000003    -0.000000000000004    -0.017203060269095
2 7
    -0.028581304072007     0.004697397375024     0.000000000000000
    -0.064541072151254    -0.071964700915785    -0.000000000000000
     0.000000000000003    -0.000000000000004     0.001159023552928
2 8
     0.116813401011129    -0.124929744707035     0.000000000000000
     0.024323491790353     0.029017751028110    -0.000000000000000
     0.000000000000003    -0.000000000000002     0.001069002306099
2 9
     0.139752187253727    -0.076894754016958     0.000000000000000
    -0.034704649828524     0.050766527529411    -0.000000000000000
     0.000000000000003    -0.000000000000004     0.001478598979173
2 10
    -0.042910930147366     0.037457641535357     0.000000000000000
     0.036712585297840    -0.049081170380634    -0.000000000000000
     0.000000000000003    -0.000000000000002     0.000126029745561
2 11
     0.139462446040092    -0.033695108288573     0.000000000000000
    -0.077037206482661     0.050524625961726    -0.000000000000000
     0.000000000000003    -0.000000000000004     0.001521359071417
2 12
    -0.106915533463603     0.024024931181495     0.000000000000000
     0.023662843366317    -0.065794269433599     0.000000000000000
     0.000000000000003    -0.000000000000004    -0.002945945302492
2 13
    -0.028445920566875    -0.063867168545876     0.000000000000000
     0.003945359064315    -0.071939281182828    -0.000000000000000
     0.000000000000003    -0.000000000000004     0.001199533114002
2 14
     0.014082961431539     0.064320498161544     0.000000000000000
    -0.091910127712878     0.043000609502848     0.000000000000000
     0.000000000000003    -0.000000000000002    -0.017234567705485
2 15
     0.025632097488627     0.004804575983253     0.000000000000000
     0.013336864118251    -0.037378304233178    -0.000000000000000
     0.000000000000004    -0.000000000000004     0.035904974297899
2 16
     0.116906220762754     0.025084922488719     0.000000000000000
    -0.125069116867337     0.028815645959461    -0.000000000000000
     0.000000000000003    -0.000000000000002     0.001123015054197
2 17
     0.289063783292150    -0.020042912555179     0.000000000000000
    -0.019618807242058    -0.444258569942834    -0.000000000000000
    -0.000000000000003     0.000000000000003     0.308223747019124
2 18
     0.219321791129650    -0.175240101352680     0.000000000000000