Mon Jan  3 23:14:48 CST 2022
 running on   48 total cores
 distrk:  each k-point on   48 cores,    1 groups
 distr:  one band on   24 cores,    2 groups
 using from now: INCAR     
 vasp.5.3.5 31Mar14 (build Jan 11 2016 19:50:55) complex                        
  
 POSCAR found type information on POSCAR  Zn Ga N  O 
 POSCAR found :  4 types and       8 ions
 scaLAPACK will be used

 ----------------------------------------------------------------------------- 
|                                                                             |
|           W    W    AA    RRRRR   N    N  II  N    N   GGGG   !!!           |
|           W    W   A  A   R    R  NN   N  II  NN   N  G    G  !!!           |
|           W    W  A    A  R    R  N N  N  II  N N  N  G       !!!           |
|           W WW W  AAAAAA  RRRRR   N  N N  II  N  N N  G  GGG   !            |
|           WW  WW  A    A  R   R   N   NN  II  N   NN  G    G                |
|           W    W  A    A  R    R  N    N  II  N    N   GGGG   !!!           |
|                                                                             |
|      For optimal performance we recommend to set                            |
|        NCORE= 4 - approx SQRT( number of cores)                             |
|      NCORE specifies how many cores store one orbital (NPAR=cpu/NCORE).     |
|      This setting can  greatly improve the performance of VASP for DFT.     |
|      The default, NPAR=number of cores might be grossly inefficient         |
|      on modern multi-core architectures or massively parallel machines.     |
|      Do your own testing !!!!                                               |
|      Unfortunately you need to use the default for GW and RPA calculations. |
|      (for HF NCORE is supported but not extensively tested yet)             |
|                                                                             |
 ----------------------------------------------------------------------------- 

 LDA part: xc-table for Pade appr. of Perdew
 POSCAR, INCAR and KPOINTS ok, starting setup
 WARNING: small aliasing (wrap around) errors must be expected
 FFT: planning ...
 WAVECAR not read
 entering main loop
       N       E                     dE             d eps       ncg     rms          rms(c)
DAV:   1     0.899978184286E+03    0.89998E+03   -0.42241E+04 10236   0.335E+03
DAV:   2     0.143225695366E+03   -0.75675E+03   -0.72725E+03  9904   0.791E+02
DAV:   3    -0.293690914088E+02   -0.17259E+03   -0.16726E+03 11244   0.268E+02
DAV:   4    -0.443232712294E+02   -0.14954E+02   -0.14784E+02 11960   0.795E+01
DAV:   5    -0.448045098661E+02   -0.48124E+00   -0.47930E+00 12508   0.140E+01    0.156E+01
DAV:   6    -0.380447794671E+02    0.67597E+01   -0.22589E+01 18868   0.791E+01    0.742E+00
DAV:   7    -0.384912715989E+02   -0.44649E+00   -0.67094E+00 10648   0.186E+01    0.477E+00
DAV:   8    -0.384504037643E+02    0.40868E-01   -0.12413E+00 14992   0.789E+00    0.210E+00
DAV:   9    -0.383979245093E+02    0.52479E-01   -0.23687E-01 14696   0.575E+00    0.498E-01
DAV:  10    -0.383992618648E+02   -0.13374E-02   -0.48986E-02 11088   0.196E+00    0.253E-01
DAV:  11    -0.383997974743E+02   -0.53561E-03   -0.85579E-03 14188   0.117E+00    0.133E-01
DAV:  12    -0.383999470307E+02   -0.14956E-03   -0.11830E-03 12020   0.744E-01    0.561E-02
DAV:  13    -0.384000214234E+02   -0.74393E-04   -0.40987E-04 12624   0.200E-01    0.197E-02
DAV:  14    -0.384000347536E+02   -0.13330E-04   -0.63557E-05 11868   0.739E-02    0.105E-02
DAV:  15    -0.384000426610E+02   -0.79074E-05   -0.19547E-05 11044   0.480E-02    0.458E-03
DAV:  16    -0.384000436528E+02   -0.99181E-06   -0.48511E-06 12188   0.290E-02    0.290E-03
DAV:  17    -0.384000437736E+02   -0.12086E-06   -0.12222E-06 12364   0.138E-02    0.105E-03
DAV:  18    -0.384000437243E+02    0.49322E-07   -0.20555E-07 11812   0.694E-03    0.374E-04
DAV:  19    -0.384000436972E+02    0.27120E-07   -0.44067E-08 10396   0.251E-03    0.166E-04
DAV:  20    -0.384000437020E+02   -0.48462E-08   -0.64504E-09  6408   0.126E-03
   1 F= -.38400044E+02 E0= -.38400044E+02  d E =-.384000E+02
 curvature:   0.00 expect dE= 0.000E+00 dE for cont linesearch  0.000E+00
 trial: gam= 0.00000 g(F)=  0.450E-04 g(S)=  0.292E-04 ort = 0.000E+00 (trialstep = 0.100E+01)
 search vector abs. value=  0.742E-04
 bond charge predicted
       N       E                     dE             d eps       ncg     rms          rms(c)
DAV:   1    -0.384002458275E+02   -0.20213E-03   -0.13392E-02 13004   0.114E+00    0.124E-01
DAV:   2    -0.384000830950E+02    0.16273E-03   -0.19898E-03 12216   0.599E-01    0.494E-02
DAV:   3    -0.384000573289E+02    0.25766E-04   -0.17068E-04 14792   0.147E-01    0.243E-02
DAV:   4    -0.384000450695E+02    0.12259E-04   -0.24578E-05 14340   0.773E-02    0.712E-03
DAV:   5    -0.384000447218E+02    0.34775E-06   -0.83073E-06 11240   0.327E-02    0.233E-03
DAV:   6    -0.384000447429E+02   -0.21087E-07   -0.14485E-06 11948   0.114E-02    0.160E-03
DAV:   7    -0.384000447088E+02    0.34066E-07   -0.11805E-07 11692   0.730E-03    0.106E-03
DAV:   8    -0.384000446480E+02    0.60853E-07   -0.60954E-08 11332   0.279E-03    0.350E-04
DAV:   9    -0.384000446359E+02    0.12080E-07   -0.22901E-08  7444   0.244E-03    0.181E-04
DAV:  10    -0.384000446292E+02    0.67112E-08   -0.53025E-09  5868   0.106E-03
   2 F= -.38400045E+02 E0= -.38400045E+02  d E =-.927134E-06
 trial-energy change:   -0.000001  1 .order   -0.000001   -0.000074    0.000072
 step:   0.5059(harm=  0.5073)  dis= 0.00033  next Energy=   -38.400062 (dE=-0.188E-04)
 bond charge predicted
       N       E                     dE             d eps       ncg     rms          rms(c)
DAV:   1    -0.384001123981E+02   -0.67762E-04   -0.32713E-03 12996   0.565E-01    0.612E-02
DAV:   2    -0.384000729666E+02    0.39431E-04   -0.48603E-04 12168   0.296E-01    0.245E-02
DAV:   3    -0.384000660027E+02    0.69640E-05   -0.41793E-05 14832   0.723E-02    0.120E-02
DAV:   4    -0.384000626041E+02    0.33986E-05   -0.60049E-06 14364   0.381E-02    0.354E-03
DAV:   5    -0.384000623960E+02    0.20813E-06   -0.20263E-06 11240   0.161E-02    0.116E-03
DAV:   6    -0.384000624018E+02   -0.57980E-08   -0.35556E-07 11968   0.550E-03    0.793E-04
DAV:   7    -0.384000624098E+02   -0.79922E-08   -0.25536E-08  7576   0.355E-03
   3 F= -.38400062E+02 E0= -.38400062E+02  d E =-.187077E-04
 curvature:  -0.25 expect dE=-0.154E-05 dE for cont linesearch -0.215E-07
 trial: gam= 0.04797 g(F)=  0.551E-05 g(S)=  0.553E-06 ort = 0.251E-05 (trialstep = 0.901E+00)
 search vector abs. value=  0.648E-05
 bond charge predicted
       N       E                     dE             d eps       ncg     rms          rms(c)
DAV:   1    -0.384000687112E+02   -0.63095E-05   -0.10488E-03 10480   0.219E-01    0.183E-02
DAV:   2    -0.384000671230E+02    0.15882E-05   -0.62184E-05 10920   0.977E-02    0.815E-03
DAV:   3    -0.384000668144E+02    0.30861E-06   -0.51242E-06 14324   0.271E-02    0.375E-03
DAV:   4    -0.384000666155E+02    0.19893E-06   -0.67764E-07 13636   0.128E-02    0.131E-03
DAV:   5    -0.384000666364E+02   -0.20930E-07   -0.24284E-07 11560   0.509E-03    0.295E-04
DAV:   6    -0.384000666427E+02   -0.63292E-08   -0.38736E-08  9864   0.302E-03
   4 F= -.38400067E+02 E0= -.38400067E+02  d E =-.423297E-05
 trial-energy change:   -0.000004  1 .order   -0.000004   -0.000006   -0.000003
 step:   2.4275(harm=  1.9437)  dis= 0.00051  next Energy=   -38.400069 (dE=-0.652E-05)
 bond charge predicted
       N       E                     dE             d eps       ncg     rms          rms(c)
DAV:   1    -0.384000749733E+02   -0.83369E-05   -0.30099E-03 10468   0.371E-01    0.311E-02
DAV:   2    -0.384000702363E+02    0.47369E-05   -0.17690E-04 10928   0.165E-01    0.138E-02
DAV:   3    -0.384000691246E+02    0.11118E-05   -0.14854E-05 14304   0.463E-02    0.634E-03
DAV:   4    -0.384000684661E+02    0.65848E-06   -0.19461E-06 13676   0.226E-02    0.224E-03
DAV:   5    -0.384000684748E+02   -0.87643E-08   -0.69275E-07 11580   0.877E-03    0.501E-04
DAV:   6    -0.384000684886E+02   -0.13790E-07   -0.11855E-07 10760   0.500E-03    0.378E-04
DAV:   7    -0.384000684841E+02    0.45525E-08   -0.11519E-08  6168   0.213E-03
   5 F= -.38400068E+02 E0= -.38400068E+02  d E =-.607432E-05
 curvature:  -0.80 expect dE=-0.940E-05 dE for cont linesearch -0.122E-06
 trial: gam= 2.10195 g(F)=  0.778E-05 g(S)=  0.400E-05 ort =-0.995E-06 (trialstep = 0.216E+00)
 search vector abs. value=  0.362E-04
 bond charge predicted
       N       E                     dE             d eps       ncg     rms          rms(c)
DAV:   1    -0.384000700556E+02   -0.15670E-05   -0.35421E-04 10176   0.105E-01    0.405E-03
DAV:   2    -0.384000704560E+02   -0.40036E-06   -0.68146E-06 11452   0.242E-02    0.243E-03
DAV:   3    -0.384000703710E+02    0.84931E-07   -0.48794E-07 13136   0.829E-03    0.125E-03
DAV:   4    -0.384000703206E+02    0.50400E-07   -0.78709E-08 11780   0.635E-03    0.336E-04
DAV:   5    -0.384000703179E+02    0.27358E-08   -0.31626E-08  8716   0.240E-03
   6 F= -.38400070E+02 E0= -.38400070E+02  d E =-.183384E-05
 ZBRENT: can't locate minimum, use default step
 trial-energy change:   -0.000002  1 .order   -0.000002   -0.000002   -0.000002
 step:   0.8634(harm=  1.2234)  dis= 0.00054  next Energy=   -38.400074 (dE=-0.592E-05)
 bond charge predicted
       N       E                     dE             d eps       ncg     rms          rms(c)
DAV:   1    -0.384000707493E+02   -0.42860E-06   -0.31869E-03 10160   0.315E-01    0.122E-02
DAV:   2    -0.384000745151E+02   -0.37658E-05   -0.61176E-05 11472   0.727E-02    0.727E-03
DAV:   3    -0.384000740410E+02    0.47412E-06   -0.44478E-06 13080   0.253E-02    0.375E-03
DAV:   4    -0.384000737567E+02    0.28429E-06   -0.74483E-07 13996   0.199E-02    0.997E-04
DAV:   5    -0.384000737586E+02   -0.19313E-08   -0.27476E-07 10940   0.698E-03    0.454E-04
DAV:   6    -0.384000737607E+02   -0.20482E-08   -0.46146E-08  9560   0.236E-03
   7 F= -.38400074E+02 E0= -.38400074E+02  d E =-.527659E-05
 curvature:  -2.00 expect dE=-0.113E-04 dE for cont linesearch -0.531E-06
 ZBRENT: increasing intervall
 opt :   2.1584  next Energy=   -38.400071 (dE=-0.299E-05)
 bond charge predicted
       N       E                     dE             d eps       ncg     rms          rms(c)
DAV:   1    -0.384000585295E+02    0.15229E-04   -0.12746E-02 10160   0.630E-01    0.243E-02
DAV:   2    -0.384000737159E+02   -0.15186E-04   -0.24464E-04 11464   0.147E-01    0.145E-02
DAV:   3    -0.384000721031E+02    0.16127E-05   -0.17935E-05 13032   0.517E-02    0.751E-03
DAV:   4    -0.384000711192E+02    0.98396E-06   -0.30329E-06 13984   0.412E-02    0.201E-03
DAV:   5    -0.384000711507E+02   -0.31519E-07   -0.11120E-06 10936   0.142E-02    0.906E-04
DAV:   6    -0.384000711607E+02   -0.10024E-07   -0.19982E-07 12600   0.466E-03    0.586E-04
DAV:   7    -0.384000711623E+02   -0.16080E-08   -0.21239E-08  7264   0.334E-03
   8 F= -.38400071E+02 E0= -.38400071E+02  d E =-.267825E-05
 curvature:   8.59 expect dE= 0.925E-04 dE for cont linesearch  0.108E-04
 ZBRENT: bracketing found
 ZBRENT: interpolating
 opt :   1.2717  next Energy=   -38.400074 (dE=-0.591E-05)
 bond charge predicted
       N       E                     dE             d eps       ncg     rms          rms(c)
DAV:   1    -0.384000677987E+02    0.33620E-05   -0.59711E-03 10156   0.431E-01    0.166E-02
DAV:   2    -0.384000750163E+02   -0.72177E-05   -0.11381E-04 11452   0.992E-02    0.992E-03
DAV:   3    -0.384000745604E+02    0.45594E-06   -0.82400E-06 13200   0.346E-02    0.511E-03
DAV:   4    -0.384000742707E+02    0.28974E-06   -0.13655E-06 13952   0.269E-02    0.136E-03
DAV:   5    -0.384000743120E+02   -0.41330E-07   -0.51373E-07 10948   0.946E-03    0.616E-04
DAV:   6    -0.384000743159E+02   -0.39518E-08   -0.87510E-08 11672   0.310E-03
   9 F= -.38400074E+02 E0= -.38400074E+02  d E =-.583186E-05
 curvature:  -0.51 expect dE=-0.279E-05 dE for cont linesearch -0.177E-08
 trial: gam= 0.08220 g(F)=  0.454E-05 g(S)=  0.985E-06 ort = 0.356E-06 (trialstep = 0.427E+00)
 search vector abs. value=  0.583E-05
 bond charge predicted
       N       E                     dE             d eps       ncg     rms          rms(c)
DAV:   1    -0.384000763584E+02   -0.20464E-05   -0.20329E-04 10324   0.848E-02    0.610E-03
DAV:   2    -0.384000765143E+02   -0.15596E-06   -0.86338E-06 11048   0.302E-02    0.337E-03
DAV:   3    -0.384000763231E+02    0.19127E-06   -0.72009E-07 13648   0.118E-02    0.161E-03
DAV:   4    -0.384000762619E+02    0.61167E-07   -0.18726E-07 13184   0.750E-03    0.344E-04
DAV:   5    -0.384000762596E+02    0.22919E-08   -0.64918E-08 10704   0.308E-03
  10 F= -.38400076E+02 E0= -.38400076E+02  d E =-.194366E-05
 trial-energy change:   -0.000002  1 .order   -0.000002   -0.000002   -0.000001
 step:   1.1466(harm=  1.1466)  dis= 0.00020  next Energy=   -38.400077 (dE=-0.318E-05)
 bond charge predicted
       N       E                     dE             d eps       ncg     rms          rms(c)
DAV:   1    -0.384000778762E+02   -0.16143E-05   -0.57800E-04 10324   0.143E-01    0.103E-02
DAV:   2    -0.384000783405E+02   -0.46438E-06   -0.24732E-05 11088   0.515E-02    0.566E-03
DAV:   3    -0.384000778590E+02    0.48154E-06   -0.20438E-06 13684   0.202E-02    0.271E-03
DAV:   4    -0.384000777019E+02    0.15708E-06   -0.52052E-07 13188   0.129E-02    0.576E-04
DAV:   5    -0.384000777040E+02   -0.20309E-08   -0.18455E-07 10756   0.555E-03    0.331E-04
DAV:   6    -0.384000777039E+02    0.79581E-10   -0.26669E-08  7404   0.276E-03
  11 F= -.38400078E+02 E0= -.38400078E+02  d E =-.338793E-05
 curvature:  -0.60 expect dE=-0.111E-05 dE for cont linesearch -0.777E-08
 trial: gam= 0.28871 g(F)=  0.164E-05 g(S)=  0.210E-06 ort = 0.274E-06 (trialstep = 0.571E+00)
 search vector abs. value=  0.249E-05
 bond charge predicted
       N       E                     dE             d eps       ncg     rms          rms(c)
DAV:   1    -0.384000784491E+02   -0.74513E-06   -0.16804E-04 10012   0.724E-02    0.387E-03
DAV:   2    -0.384000786919E+02   -0.24284E-06   -0.44164E-06 12488   0.185E-02    0.238E-03
DAV:   3    -0.384000786279E+02    0.63977E-07   -0.29583E-07 12052   0.100E-02    0.104E-03
DAV:   4    -0.384000786160E+02    0.11948E-07   -0.95281E-08 10868   0.677E-03    0.281E-04
DAV:   5    -0.384000786212E+02   -0.51809E-08   -0.36546E-08  8376   0.239E-03
  12 F= -.38400079E+02 E0= -.38400079E+02  d E =-.917302E-06
 trial-energy change:   -0.000001  1 .order   -0.000001   -0.000001   -0.000001
 step:   0.9131(harm=  1.3096)  dis= 0.00015  next Energy=   -38.400079 (dE=-0.112E-05)
 bond charge predicted
       N       E                     dE             d eps       ncg     rms          rms(c)
DAV:   1    -0.384000788723E+02   -0.25631E-06   -0.60498E-05 10108   0.433E-02    0.232E-03
DAV:   2    -0.384000789660E+02   -0.93725E-07   -0.15848E-06 12496   0.101E-02    0.142E-03
DAV:   3    -0.384000789488E+02    0.17268E-07   -0.86057E-08 11452   0.374E-03    0.587E-04
DAV:   4    -0.384000789446E+02    0.41605E-08   -0.26684E-08  7300   0.276E-03
  13 F= -.38400079E+02 E0= -.38400079E+02  d E =-.124073E-05
 curvature:  -0.60 expect dE=-0.551E-06 dE for cont linesearch -0.991E-07
 trial: gam= 0.22837 g(F)=  0.837E-06 g(S)=  0.778E-07 ort = 0.640E-06 (trialstep = 0.639E+00)
 search vector abs. value=  0.134E-05
 bond charge predicted
       N       E                     dE             d eps       ncg     rms          rms(c)
DAV:   1    -0.384000795955E+02   -0.64675E-06   -0.12294E-04  9920   0.650E-02    0.450E-03
DAV:   2    -0.384000795976E+02   -0.20827E-08   -0.44407E-06 11768   0.233E-02    0.197E-03
DAV:   3    -0.384000795271E+02    0.70476E-07   -0.32079E-07 12940   0.684E-03    0.970E-04
DAV:   4    -0.384000794916E+02    0.35503E-07   -0.50603E-08 10080   0.386E-03    0.334E-04
DAV:   5    -0.384000794800E+02    0.11621E-07   -0.20722E-08  6900   0.150E-03    0.876E-05
DAV:   6    -0.384000794792E+02    0.81354E-09   -0.37334E-09  5748   0.916E-04
  14 F= -.38400079E+02 E0= -.38400079E+02  d E =-.534584E-06
 trial-energy change:   -0.000001  1 .order   -0.000001   -0.000001   -0.000000
 step:   1.7803(harm=  1.7803)  dis= 0.00027  next Energy=   -38.400080 (dE=-0.944E-06)
 bond charge predicted
       N       E                     dE             d eps       ncg     rms          rms(c)
DAV:   1    -0.384000801949E+02   -0.71491E-06   -0.39165E-04  9928   0.116E-01    0.806E-03
DAV:   2    -0.384000801878E+02    0.70959E-08   -0.14270E-05 11752   0.416E-02    0.351E-03
DAV:   3    -0.384000800225E+02    0.16527E-06   -0.10246E-06 12924   0.120E-02    0.173E-03
DAV:   4    -0.384000799351E+02    0.87408E-07   -0.16892E-07 13072   0.646E-03    0.593E-04
DAV:   5    -0.384000799137E+02    0.21443E-07   -0.62361E-08 10652   0.236E-03    0.163E-04
DAV:   6    -0.384000799117E+02    0.20309E-08   -0.64984E-09  5988   0.120E-03
  15 F= -.38400080E+02 E0= -.38400080E+02  d E =-.967060E-06
 curvature:  -1.12 expect dE=-0.973E-06 dE for cont linesearch -0.744E-08
 trial: gam= 1.02899 g(F)=  0.647E-06 g(S)=  0.221E-06 ort = 0.942E-07 (trialstep = 0.468E+00)
 search vector abs. value=  0.248E-05
 bond charge predicted
       N       E                     dE             d eps       ncg     rms          rms(c)
DAV:   1    -0.384000802381E+02   -0.32441E-06   -0.12315E-04 10128   0.585E-02    0.256E-03
DAV:   2    -0.384000803249E+02   -0.86774E-07   -0.19395E-06 11168   0.148E-02    0.150E-03
DAV:   3    -0.384000803285E+02   -0.36666E-08   -0.16454E-07 12216   0.594E-03    0.723E-04
DAV:   4    -0.384000803265E+02    0.20400E-08   -0.33239E-08  9340   0.427E-03
  16 F= -.38400080E+02 E0= -.38400080E+02  d E =-.414842E-06
 ZBRENT: can't locate minimum, use default step
 trial-energy change:   -0.000000  1 .order   -0.000000   -0.000000   -0.000000
 step:   1.8731(harm=  2.2808)  dis= 0.00046  next Energy=   -38.400081 (dE=-0.110E-05)
 bond charge predicted
       N       E                     dE             d eps       ncg     rms          rms(c)
DAV:   1    -0.384000804458E+02   -0.11728E-06   -0.11077E-03 10124   0.175E-01    0.769E-03
DAV:   2    -0.384000812300E+02   -0.78415E-06   -0.17405E-05 11152   0.447E-02    0.451E-03
DAV:   3    -0.384000811268E+02    0.10315E-06   -0.14962E-06 12272   0.188E-02    0.217E-03
DAV:   4    -0.384000810700E+02    0.56836E-07   -0.32184E-07 12312   0.133E-02    0.509E-04
DAV:   5    -0.384000810792E+02   -0.91622E-08   -0.11438E-07 11152   0.529E-03    0.237E-04
DAV:   6    -0.384000810817E+02   -0.25348E-08   -0.25338E-08  7408   0.211E-03
  17 F= -.38400081E+02 E0= -.38400081E+02  d E =-.117002E-05
 curvature:  -2.78 expect dE=-0.202E-05 dE for cont linesearch -0.529E-07
 trial: gam= 0.63180 g(F)=  0.584E-06 g(S)=  0.144E-06 ort = 0.217E-06 (trialstep = 0.749E+00)
 search vector abs. value=  0.199E-05
 bond charge predicted
       N       E                     dE             d eps       ncg     rms          rms(c)
DAV:   1    -0.384000817383E+02   -0.65913E-06   -0.24489E-04 10156   0.850E-02    0.473E-03
DAV:   2    -0.384000817659E+02   -0.27655E-07   -0.46129E-06 11216   0.242E-02    0.269E-03
DAV:   3    -0.384000816394E+02    0.12654E-06   -0.42410E-07 12344   0.992E-03    0.124E-03
DAV:   4    -0.384000815926E+02    0.46768E-07   -0.98970E-08 11924   0.739E-03    0.275E-04
DAV:   5    -0.384000815905E+02    0.21510E-08   -0.39229E-08  9288   0.294E-03
  18 F= -.38400082E+02 E0= -.38400082E+02  d E =-.508788E-06
 trial-energy change:   -0.000001  1 .order   -0.000001   -0.000001   -0.000000
 step:   1.9520(harm=  1.9520)  dis= 0.00043  next Energy=   -38.400082 (dE=-0.844E-06)
 bond charge predicted
       N       E                     dE             d eps       ncg     rms          rms(c)
DAV:   1    -0.384000822545E+02   -0.66185E-06   -0.63097E-04 10148   0.136E-01    0.763E-03
DAV:   2    -0.384000823411E+02   -0.86650E-07   -0.11968E-05 11204   0.377E-02    0.432E-03
DAV:   3    -0.384000820636E+02    0.27748E-06   -0.10571E-06 12488   0.145E-02    0.198E-03
DAV:   4    -0.384000819639E+02    0.99699E-07   -0.24652E-07 12624   0.109E-02    0.428E-04
DAV:   5    -0.384000819630E+02    0.90176E-09   -0.93565E-08 10680   0.448E-03
  19 F= -.38400082E+02 E0= -.38400082E+02  d E =-.881357E-06
 curvature:  -2.25 expect dE=-0.224E-05 dE for cont linesearch -0.184E-08
 trial: gam= 1.63453 g(F)=  0.417E-06 g(S)=  0.579E-06 ort = 0.404E-07 (trialstep = 0.306E+00)
 search vector abs. value=  0.645E-05
 bond charge predicted
       N       E                     dE             d eps       ncg     rms          rms(c)
DAV:   1    -0.384000823195E+02   -0.35553E-06   -0.13200E-04 10308   0.671E-02    0.487E-03
DAV:   2    -0.384000822128E+02    0.10669E-06   -0.42090E-06 11160   0.269E-02    0.221E-03
DAV:   3    -0.384000822013E+02    0.11517E-07   -0.36348E-07 12720   0.809E-03    0.108E-03
DAV:   4    -0.384000821946E+02    0.67175E-08   -0.60280E-08 10852   0.484E-03
  20 F= -.38400082E+02 E0= -.38400082E+02  d E =-.231511E-06
 trial-energy change:   -0.000000  1 .order   -0.000000   -0.000000   -0.000000
 step:   0.6403(harm=  0.6403)  dis= 0.00026  next Energy=   -38.400082 (dE=-0.340E-06)
 bond charge predicted
       N       E                     dE             d eps       ncg     rms          rms(c)
DAV:   1    -0.384000825333E+02   -0.33204E-06   -0.15825E-04 10328   0.738E-02    0.534E-03
DAV:   2    -0.384000824015E+02    0.13183E-06   -0.49361E-06 11192   0.299E-02    0.243E-03
DAV:   3    -0.384000823778E+02    0.23690E-07   -0.45422E-07 12436   0.985E-03    0.119E-03
DAV:   4    -0.384000823665E+02    0.11332E-07   -0.83856E-08 11636   0.616E-03    0.326E-04
DAV:   5    -0.384000823710E+02   -0.45170E-08   -0.26209E-08  7368   0.282E-03
  21 F= -.38400082E+02 E0= -.38400082E+02  d E =-.407926E-06
 curvature:  -1.94 expect dE=-0.931E-06 dE for cont linesearch -0.330E-07
 trial: gam= 0.20837 g(F)=  0.392E-06 g(S)=  0.865E-07 ort = 0.331E-06 (trialstep = 0.373E+00)
 search vector abs. value=  0.897E-06
 bond charge predicted
       N       E                     dE             d eps       ncg     rms          rms(c)
DAV:   1    -0.384000825273E+02   -0.16086E-06   -0.26099E-05 10276   0.287E-02    0.145E-03
DAV:   2    -0.384000825614E+02   -0.34116E-07   -0.68449E-07 11072   0.772E-03    0.809E-04
DAV:   3    -0.384000825429E+02    0.18561E-07   -0.49906E-08 11736   0.249E-03    0.419E-04
DAV:   4    -0.384000825343E+02    0.85829E-08   -0.95057E-09  5920   0.132E-03
  22 F= -.38400083E+02 E0= -.38400083E+02  d E =-.163311E-06
 trial-energy change:   -0.000000  1 .order   -0.000000   -0.000000   -0.000000
 step:   1.2316(harm=  1.2316)  dis= 0.00015  next Energy=   -38.400083 (dE=-0.337E-06)
 bond charge predicted
       N       E                     dE             d eps       ncg     rms          rms(c)
DAV:   1    -0.384000825874E+02   -0.44506E-07   -0.13832E-04 10280   0.663E-02    0.337E-03
DAV:   2    -0.384000827637E+02   -0.17629E-06   -0.35967E-06 11000   0.177E-02    0.186E-03
DAV:   3    -0.384000827075E+02    0.56131E-07   -0.27997E-07 13328   0.571E-03    0.967E-04
DAV:   4    -0.384000826816E+02    0.25957E-07   -0.51422E-08 11008   0.335E-03    0.236E-04
DAV:   5    -0.384000826791E+02    0.25111E-08   -0.19139E-08  6200   0.140E-03
  23 F= -.38400083E+02 E0= -.38400083E+02  d E =-.308087E-06
 curvature:  -1.01 expect dE=-0.290E-06 dE for cont linesearch -0.343E-10
 trial: gam= 0.84820 g(F)=  0.239E-06 g(S)=  0.488E-07 ort =-0.553E-08 (trialstep = 0.529E+00)
 search vector abs. value=  0.923E-06
 bond charge predicted
       N       E                     dE             d eps       ncg     rms          rms(c)
DAV:   1    -0.384000827368E+02   -0.55276E-07   -0.55269E-05 10176   0.435E-02    0.256E-03
DAV:   2    -0.384000827674E+02   -0.30544E-07   -0.17124E-06 11508   0.147E-02    0.127E-03
DAV:   3    -0.384000827730E+02   -0.56166E-08   -0.12746E-07 11992   0.496E-03    0.647E-04
DAV:   4    -0.384000827708E+02    0.22546E-08   -0.24803E-08  7676   0.239E-03
  24 F= -.38400083E+02 E0= -.38400083E+02  d E =-.916934E-07
 trial-energy change:   -0.000000  1 .order   -0.000000   -0.000000   -0.000000
 step:   0.7676(harm=  0.7676)  dis= 0.00010  next Energy=   -38.400083 (dE=-0.108E-06)
 bond charge predicted
       N       E                     dE             d eps       ncg     rms          rms(c)
DAV:   1    -0.384000827785E+02   -0.55052E-08   -0.11258E-05 10296   0.198E-02    0.116E-03
DAV:   2    -0.384000827804E+02   -0.18622E-08   -0.34146E-07 11600   0.671E-03    0.566E-04
DAV:   3    -0.384000827844E+02   -0.40595E-08   -0.24086E-08  8104   0.255E-03
  25 F= -.38400083E+02 E0= -.38400083E+02  d E =-.105375E-06
 curvature:  -1.25 expect dE=-0.271E-06 dE for cont linesearch -0.196E-08
 trial: gam= 0.38281 g(F)=  0.190E-06 g(S)=  0.256E-07 ort = 0.380E-07 (trialstep = 0.577E+00)
 search vector abs. value=  0.380E-06
 bond charge predicted
       N       E                     dE             d eps       ncg     rms          rms(c)
DAV:   1    -0.384000828847E+02   -0.10436E-06   -0.25724E-05 10192   0.276E-02    0.158E-03
DAV:   2    -0.384000828968E+02   -0.12109E-07   -0.49974E-07 10948   0.641E-03    0.938E-04
DAV:   3    -0.384000828831E+02    0.13727E-07   -0.44485E-08 11744   0.334E-03    0.366E-04
DAV:   4    -0.384000828796E+02    0.35052E-08   -0.11631E-08  5704   0.208E-03
  26 F= -.38400083E+02 E0= -.38400083E+02  d E =-.951786E-07
 trial-energy change:   -0.000000  1 .order   -0.000000   -0.000000   -0.000000
 step:   1.1579(harm=  1.1579)  dis= 0.00009  next Energy=   -38.400083 (dE=-0.133E-06)
 bond charge predicted
       N       E                     dE             d eps       ncg     rms          rms(c)
DAV:   1    -0.384000829231E+02   -0.40011E-07   -0.26211E-05 10184   0.279E-02    0.158E-03
DAV:   2    -0.384000829385E+02   -0.15365E-07   -0.53299E-07 10920   0.723E-03    0.928E-04
DAV:   3    -0.384000829276E+02    0.10922E-07   -0.53201E-08 12056   0.449E-03    0.418E-04
DAV:   4    -0.384000829240E+02    0.35729E-08   -0.13200E-08  5760   0.282E-03
  27 F= -.38400083E+02 E0= -.38400083E+02  d E =-.139565E-06
 curvature:  -0.96 expect dE=-0.103E-06 dE for cont linesearch -0.175E-08
 trial: gam= 0.51656 g(F)=  0.916E-07 g(S)=  0.157E-07 ort = 0.264E-07 (trialstep = 0.693E+00)
 search vector abs. value=  0.236E-06
 bond charge predicted
       N       E                     dE             d eps       ncg     rms          rms(c)
DAV:   1    -0.384000830108E+02   -0.83229E-07   -0.23829E-05 10244   0.262E-02    0.173E-03
DAV:   2    -0.384000830107E+02    0.75488E-10   -0.47963E-07 11948   0.893E-03    0.990E-04
DAV:   3    -0.384000829897E+02    0.20992E-07   -0.60093E-08 10972   0.513E-03    0.437E-04
DAV:   4    -0.384000829864E+02    0.33460E-08   -0.14029E-08  5980   0.319E-03
  28 F= -.38400083E+02 E0= -.38400083E+02  d E =-.623891E-07
 trial-energy change:   -0.000000  1 .order   -0.000000   -0.000000   -0.000000
 step:   1.4230(harm=  1.4230)  dis= 0.00010  next Energy=   -38.400083 (dE=-0.860E-07)
 bond charge predicted
       N       E                     dE             d eps       ncg     rms          rms(c)
DAV:   1    -0.384000830384E+02   -0.48624E-07   -0.26482E-05 10264   0.276E-02    0.182E-03
DAV:   2    -0.384000830393E+02   -0.90586E-09   -0.53047E-07 11956   0.907E-03    0.104E-03
DAV:   3    -0.384000830166E+02    0.22664E-07   -0.65194E-08 11020   0.525E-03    0.453E-04
DAV:   4    -0.384000830136E+02    0.29886E-08   -0.15248E-08  6056   0.334E-03
  29 F= -.38400083E+02 E0= -.38400083E+02  d E =-.896130E-07
 curvature:  -1.39 expect dE=-0.148E-06 dE for cont linesearch -0.180E-09
 trial: gam= 1.19562 g(F)=  0.931E-07 g(S)=  0.136E-07 ort = 0.553E-08 (trialstep = 0.433E+00)
 search vector abs. value=  0.457E-06
 reached required accuracy - stopping structural energy minimisation
 writing wavefunctions
Mon Jan  3 23:20:27 CST 2022
