Tue Jan  4 00:11:28 CST 2022
 running on   48 total cores
 distrk:  each k-point on   48 cores,    1 groups
 distr:  one band on   24 cores,    2 groups
 using from now: INCAR     
 vasp.5.3.5 31Mar14 (build Jan 11 2016 19:50:55) complex                        
  
 POSCAR found type information on POSCAR  Zn Ga N  O 
 POSCAR found :  4 types and       8 ions
 scaLAPACK will be used

 ----------------------------------------------------------------------------- 
|                                                                             |
|           W    W    AA    RRRRR   N    N  II  N    N   GGGG   !!!           |
|           W    W   A  A   R    R  NN   N  II  NN   N  G    G  !!!           |
|           W    W  A    A  R    R  N N  N  II  N N  N  G       !!!           |
|           W WW W  AAAAAA  RRRRR   N  N N  II  N  N N  G  GGG   !            |
|           WW  WW  A    A  R   R   N   NN  II  N   NN  G    G                |
|           W    W  A    A  R    R  N    N  II  N    N   GGGG   !!!           |
|                                                                             |
|      For optimal performance we recommend to set                            |
|        NCORE= 4 - approx SQRT( number of cores)                             |
|      NCORE specifies how many cores store one orbital (NPAR=cpu/NCORE).     |
|      This setting can  greatly improve the performance of VASP for DFT.     |
|      The default, NPAR=number of cores might be grossly inefficient         |
|      on modern multi-core architectures or massively parallel machines.     |
|      Do your own testing !!!!                                               |
|      Unfortunately you need to use the default for GW and RPA calculations. |
|      (for HF NCORE is supported but not extensively tested yet)             |
|                                                                             |
 ----------------------------------------------------------------------------- 

 LDA part: xc-table for Pade appr. of Perdew
 POSCAR, INCAR and KPOINTS ok, starting setup
 WARNING: small aliasing (wrap around) errors must be expected
 FFT: planning ...
 WAVECAR not read
 entering main loop
       N       E                     dE             d eps       ncg     rms          rms(c)
DAV:   1     0.909297849397E+03    0.90930E+03   -0.42186E+04 10228   0.342E+03
DAV:   2     0.140490082389E+03   -0.76881E+03   -0.73769E+03  9896   0.796E+02
DAV:   3    -0.339535469986E+02   -0.17444E+03   -0.16969E+03 11116   0.271E+02
DAV:   4    -0.488207712653E+02   -0.14867E+02   -0.14698E+02 12272   0.810E+01
DAV:   5    -0.492880501612E+02   -0.46728E+00   -0.46511E+00 12556   0.142E+01    0.172E+01
DAV:   6    -0.409856120530E+02    0.83024E+01   -0.23055E+01 18892   0.851E+01    0.807E+00
DAV:   7    -0.417151733528E+02   -0.72956E+00   -0.94575E+00 10716   0.214E+01    0.560E+00
DAV:   8    -0.416131045671E+02    0.10207E+00   -0.12940E+00 15688   0.112E+01    0.241E+00
DAV:   9    -0.415700444274E+02    0.43060E-01   -0.20704E-01 13660   0.607E+00    0.977E-01
DAV:  10    -0.415624635454E+02    0.75809E-02   -0.95742E-02 13396   0.248E+00    0.389E-01
DAV:  11    -0.415630395717E+02   -0.57603E-03   -0.14840E-02 12852   0.135E+00    0.124E-01
DAV:  12    -0.415633519760E+02   -0.31240E-03   -0.23174E-03 11216   0.575E-01    0.596E-02
DAV:  13    -0.415634100087E+02   -0.58033E-04   -0.42406E-04 13352   0.209E-01    0.547E-02
DAV:  14    -0.415634288469E+02   -0.18838E-04   -0.76684E-05 12312   0.786E-02    0.336E-02
DAV:  15    -0.415634319689E+02   -0.31219E-05   -0.52389E-05 13436   0.823E-02    0.101E-02
DAV:  16    -0.415634324025E+02   -0.43368E-06   -0.17073E-05 16080   0.702E-02    0.715E-03
DAV:  17    -0.415634324367E+02   -0.34147E-07   -0.46909E-06 12164   0.164E-02    0.584E-03
DAV:  18    -0.415634325493E+02   -0.11265E-06   -0.14276E-06 13820   0.107E-02    0.210E-03
DAV:  19    -0.415634326137E+02   -0.64381E-07   -0.34555E-07 13120   0.105E-02    0.237E-03
DAV:  20    -0.415634325229E+02    0.90786E-07   -0.69779E-08 10948   0.290E-03    0.925E-04
DAV:  21    -0.415634324839E+02    0.39066E-07   -0.13967E-08  7500   0.123E-03    0.180E-04
DAV:  22    -0.415634324764E+02    0.74892E-08   -0.79505E-09  6072   0.100E-03
   1 F= -.41563432E+02 E0= -.41561045E+02  d E =-.415634E+02
 curvature:   0.00 expect dE= 0.000E+00 dE for cont linesearch  0.000E+00
 trial: gam= 0.00000 g(F)=  0.124E-03 g(S)=  0.334E-04 ort = 0.000E+00 (trialstep = 0.100E+01)
 search vector abs. value=  0.157E-03
 bond charge predicted
       N       E                     dE             d eps       ncg     rms          rms(c)
DAV:   1    -0.415635571660E+02   -0.12468E-03   -0.28458E-02 12212   0.119E+00    0.102E-01
DAV:   2    -0.415635222822E+02    0.34884E-04   -0.18137E-03 12116   0.563E-01    0.502E-02
DAV:   3    -0.415634984961E+02    0.23786E-04   -0.14218E-04 14000   0.142E-01    0.249E-02
DAV:   4    -0.415634873745E+02    0.11122E-04   -0.28114E-05 13952   0.768E-02    0.584E-03
DAV:   5    -0.415634882541E+02   -0.87956E-06   -0.12115E-05 10676   0.284E-02    0.339E-03
DAV:   6    -0.415634881961E+02    0.57995E-07   -0.50496E-07 12568   0.101E-02    0.215E-03
DAV:   7    -0.415634881096E+02    0.86510E-07   -0.16548E-07 12952   0.669E-03    0.760E-04
DAV:   8    -0.415634880899E+02    0.19673E-07   -0.66749E-08 10864   0.297E-03    0.272E-04
DAV:   9    -0.415634880913E+02   -0.13820E-08   -0.13507E-08  6112   0.998E-04
   2 F= -.41563488E+02 E0= -.41561164E+02  d E =-.556149E-04
 trial-energy change:   -0.000056  1 .order   -0.000055   -0.000157    0.000048
 step:   0.7705(harm=  0.7650)  dis= 0.00062  next Energy=   -41.563494 (dE=-0.612E-04)
 bond charge predicted
       N       E                     dE             d eps       ncg     rms          rms(c)
DAV:   1    -0.415634976931E+02   -0.96032E-05   -0.15006E-03 12220   0.274E-01    0.234E-02
DAV:   2    -0.415634959633E+02    0.17298E-05   -0.96062E-05 12132   0.130E-01    0.115E-02
DAV:   3    -0.415634943856E+02    0.15777E-05   -0.75416E-06 13976   0.326E-02    0.572E-03
DAV:   4    -0.415634935160E+02    0.86960E-06   -0.14778E-06 13920   0.177E-02    0.134E-03
DAV:   5    -0.415634935108E+02    0.52196E-08   -0.64089E-07 10652   0.652E-03    0.781E-04
DAV:   6    -0.415634935195E+02   -0.87084E-08   -0.24772E-08  8084   0.232E-03
   3 F= -.41563494E+02 E0= -.41561155E+02  d E =-.610431E-04
 curvature:  -0.38 expect dE=-0.110E-04 dE for cont linesearch -0.159E-09
 trial: gam= 0.18481 g(F)=  0.173E-04 g(S)=  0.116E-04 ort =-0.256E-06 (trialstep = 0.954E+00)
 search vector abs. value=  0.341E-04
 bond charge predicted
       N       E                     dE             d eps       ncg     rms          rms(c)
DAV:   1    -0.415635309327E+02   -0.37422E-04   -0.52775E-03 10528   0.459E-01    0.444E-02
DAV:   2    -0.415635205116E+02    0.10421E-04   -0.24955E-04 11916   0.190E-01    0.243E-02
DAV:   3    -0.415635116637E+02    0.88479E-05   -0.25257E-05 13172   0.641E-02    0.112E-02
DAV:   4    -0.415635093442E+02    0.23195E-05   -0.70349E-06 12808   0.322E-02    0.187E-03
DAV:   5    -0.415635094950E+02   -0.15078E-06   -0.19736E-06 10744   0.114E-02    0.126E-03
DAV:   6    -0.415635095163E+02   -0.21312E-07   -0.13841E-07 12780   0.366E-03    0.713E-04
DAV:   7    -0.415635095316E+02   -0.15326E-07   -0.25761E-08  8976   0.333E-03    0.361E-04
DAV:   8    -0.415635095441E+02   -0.12486E-07   -0.11583E-08  6120   0.101E-03    0.127E-04
DAV:   9    -0.415635095462E+02   -0.20768E-08   -0.29746E-09  6004   0.564E-04
   4 F= -.41563510E+02 E0= -.41561167E+02  d E =-.160267E-04
 trial-energy change:   -0.000016  1 .order   -0.000016   -0.000027   -0.000004
 step:   1.1073(harm=  1.1193)  dis= 0.00050  next Energy=   -41.563510 (dE=-0.164E-04)
 bond charge predicted
       N       E                     dE             d eps       ncg     rms          rms(c)
DAV:   1    -0.415635104867E+02   -0.94256E-06   -0.13599E-04 10620   0.736E-02    0.713E-03
DAV:   2    -0.415635102488E+02    0.23789E-06   -0.63768E-06 11916   0.304E-02    0.389E-03
DAV:   3    -0.415635099787E+02    0.27014E-06   -0.64614E-07 13252   0.103E-02    0.179E-03
DAV:   4    -0.415635099075E+02    0.71109E-07   -0.17973E-07 12852   0.516E-03    0.299E-04
DAV:   5    -0.415635099133E+02   -0.57330E-08   -0.50533E-08 10584   0.182E-03
   5 F= -.41563510E+02 E0= -.41561167E+02  d E =-.163938E-04
 curvature:  -0.66 expect dE=-0.445E-05 dE for cont linesearch -0.241E-09
 trial: gam= 0.22287 g(F)=  0.600E-05 g(S)=  0.741E-06 ort = 0.112E-06 (trialstep = 0.985E+00)
 search vector abs. value=  0.848E-05
 bond charge predicted
       N       E                     dE             d eps       ncg     rms          rms(c)
DAV:   1    -0.415635154456E+02   -0.55380E-05   -0.15640E-03 10348   0.240E-01    0.176E-02
DAV:   2    -0.415635162971E+02   -0.85151E-06   -0.60901E-05 11760   0.821E-02    0.949E-03
DAV:   3    -0.415635153758E+02    0.92131E-06   -0.47730E-06 13056   0.278E-02    0.478E-03
DAV:   4    -0.415635149462E+02    0.42954E-06   -0.11275E-06 14288   0.146E-02    0.106E-03
DAV:   5    -0.415635149478E+02   -0.15843E-08   -0.33794E-07 10796   0.497E-03    0.450E-04
DAV:   6    -0.415635149582E+02   -0.10430E-07   -0.20992E-08  8508   0.145E-03    0.275E-04
DAV:   7    -0.415635149656E+02   -0.74069E-08   -0.38710E-09  6132   0.886E-04
   6 F= -.41563515E+02 E0= -.41561168E+02  d E =-.505236E-05
 trial-energy change:   -0.000005  1 .order   -0.000005   -0.000007   -0.000003
 step:   2.0519(harm=  2.0519)  dis= 0.00058  next Energy=   -41.563517 (dE=-0.694E-05)
 bond charge predicted
       N       E                     dE             d eps       ncg     rms          rms(c)
DAV:   1    -0.415635173894E+02   -0.24312E-05   -0.18374E-03 10276   0.260E-01    0.190E-02
DAV:   2    -0.415635184195E+02   -0.10300E-05   -0.71913E-05 11784   0.891E-02    0.103E-02
DAV:   3    -0.415635173554E+02    0.10640E-05   -0.56263E-06 13048   0.301E-02    0.518E-03
DAV:   4    -0.415635168561E+02    0.49932E-06   -0.13301E-06 14320   0.158E-02    0.115E-03
DAV:   5    -0.415635168590E+02   -0.29017E-08   -0.39741E-07 10800   0.540E-03    0.490E-04
DAV:   6    -0.415635168703E+02   -0.11356E-07   -0.25472E-08  9156   0.158E-03    0.301E-04
DAV:   7    -0.415635168777E+02   -0.73815E-08   -0.41923E-09  6148   0.933E-04
   7 F= -.41563517E+02 E0= -.41561166E+02  d E =-.696445E-05
 curvature:  -1.29 expect dE=-0.605E-05 dE for cont linesearch -0.313E-09
 trial: gam= 0.70007 g(F)=  0.357E-05 g(S)=  0.114E-05 ort = 0.454E-07 (trialstep = 0.114E+01)
 search vector abs. value=  0.892E-05
 bond charge predicted
       N       E                     dE             d eps       ncg     rms          rms(c)
DAV:   1    -0.415635213533E+02   -0.44829E-05   -0.21935E-03 10236   0.319E-01    0.251E-02
DAV:   2    -0.415635212236E+02    0.12971E-06   -0.12901E-04 11512   0.143E-01    0.106E-02
DAV:   3    -0.415635207494E+02    0.47419E-06   -0.10282E-05 12992   0.366E-02    0.552E-03
DAV:   4    -0.415635202897E+02    0.45965E-06   -0.14908E-06 14124   0.188E-02    0.142E-03
DAV:   5    -0.415635203445E+02   -0.54780E-07   -0.54951E-07 10856   0.635E-03    0.635E-04
DAV:   6    -0.415635203308E+02    0.13659E-07   -0.31543E-08  9688   0.154E-03    0.415E-04
DAV:   7    -0.415635203154E+02    0.15390E-07   -0.53827E-09  6100   0.128E-03    0.153E-04
DAV:   8    -0.415635203091E+02    0.63210E-08   -0.37014E-09  6012   0.696E-04
   8 F= -.41563520E+02 E0= -.41561167E+02  d E =-.343140E-05
 trial-energy change:   -0.000003  1 .order   -0.000003   -0.000005   -0.000001
 step:   1.4889(harm=  1.5249)  dis= 0.00035  next Energy=   -41.563521 (dE=-0.364E-05)
 bond charge predicted
       N       E                     dE             d eps       ncg     rms          rms(c)
DAV:   1    -0.415635206175E+02   -0.30205E-06   -0.20708E-04 10256   0.979E-02    0.770E-03
DAV:   2    -0.415635205731E+02    0.44361E-07   -0.12133E-05 11504   0.440E-02    0.326E-03
DAV:   3    -0.415635205758E+02   -0.26689E-08   -0.97052E-07 12992   0.112E-02    0.169E-03
DAV:   4    -0.415635205618E+02    0.13980E-07   -0.14107E-07 14140   0.575E-03    0.434E-04
DAV:   5    -0.415635205748E+02   -0.13007E-07   -0.51704E-08 10268   0.195E-03    0.195E-04
DAV:   6    -0.415635205704E+02    0.44793E-08   -0.27163E-09  6072   0.488E-04
   9 F= -.41563521E+02 E0= -.41561167E+02  d E =-.369263E-05
 curvature:  -1.42 expect dE=-0.341E-05 dE for cont linesearch -0.148E-08
 trial: gam= 0.50409 g(F)=  0.169E-05 g(S)=  0.703E-06 ort = 0.963E-07 (trialstep = 0.121E+01)
 search vector abs. value=  0.476E-05
 bond charge predicted
       N       E                     dE             d eps       ncg     rms          rms(c)
DAV:   1    -0.415635223694E+02   -0.17946E-05   -0.14838E-03  9920   0.251E-01    0.164E-02
DAV:   2    -0.415635236975E+02   -0.13280E-05   -0.68037E-05 11144   0.101E-01    0.744E-03
DAV:   3    -0.415635232687E+02    0.42878E-06   -0.45568E-06 13628   0.267E-02    0.382E-03
DAV:   4    -0.415635229027E+02    0.36596E-06   -0.70617E-07 14796   0.119E-02    0.108E-03
DAV:   5    -0.415635228632E+02    0.39587E-07   -0.25718E-07 11260   0.386E-03    0.453E-04
DAV:   6    -0.415635228709E+02   -0.76971E-08   -0.89012E-09  6176   0.948E-04
  10 F= -.41563523E+02 E0= -.41561168E+02  d E =-.230050E-05
 trial-energy change:   -0.000002  1 .order   -0.000002   -0.000003   -0.000001
 step:   1.3092(harm=  1.4604)  dis= 0.00032  next Energy=   -41.563523 (dE=-0.232E-05)
 bond charge predicted
       N       E                     dE             d eps       ncg     rms          rms(c)
DAV:   1    -0.415635235738E+02   -0.71068E-06   -0.10276E-05 10016   0.209E-02    0.139E-03
DAV:   2    -0.415635235911E+02   -0.17238E-07   -0.47274E-07 11428   0.847E-03    0.630E-04
DAV:   3    -0.415635235757E+02    0.15364E-07   -0.30153E-08  9584   0.227E-03    0.312E-04
DAV:   4    -0.415635235649E+02    0.10760E-07   -0.51675E-09  5928   0.105E-03    0.101E-04
DAV:   5    -0.415635235614E+02    0.35407E-08   -0.34846E-09  5588   0.545E-04
  11 F= -.41563524E+02 E0= -.41561168E+02  d E =-.299105E-05
 curvature:  -0.91 expect dE=-0.103E-05 dE for cont linesearch -0.312E-07
 trial: gam= 0.33218 g(F)=  0.679E-06 g(S)=  0.453E-06 ort = 0.404E-06 (trialstep = 0.123E+01)
 search vector abs. value=  0.193E-05
 bond charge predicted
       N       E                     dE             d eps       ncg     rms          rms(c)
DAV:   1    -0.415635248302E+02   -0.12652E-05   -0.59162E-04  9876   0.141E-01    0.935E-03
DAV:   2    -0.415635251560E+02   -0.32582E-06   -0.19547E-05 12000   0.433E-02    0.561E-03
DAV:   3    -0.415635248428E+02    0.31319E-06   -0.13379E-06 13084   0.142E-02    0.260E-03
DAV:   4    -0.415635247654E+02    0.77410E-07   -0.45599E-07 13324   0.752E-03    0.530E-04
DAV:   5    -0.415635247829E+02   -0.17465E-07   -0.14991E-07 10648   0.316E-03    0.330E-04
DAV:   6    -0.415635247765E+02    0.63633E-08   -0.53549E-09  6052   0.958E-04
  12 F= -.41563525E+02 E0= -.41561172E+02  d E =-.121510E-05
 trial-energy change:   -0.000001  1 .order   -0.000001   -0.000002   -0.000001
 step:   1.6173(harm=  2.0348)  dis= 0.00020  next Energy=   -41.563525 (dE=-0.132E-05)
 bond charge predicted
       N       E                     dE             d eps       ncg     rms          rms(c)
DAV:   1    -0.415635249465E+02   -0.16363E-06   -0.59300E-05  9880   0.446E-02    0.295E-03
DAV:   2    -0.415635249764E+02   -0.29851E-07   -0.19658E-06 12008   0.136E-02    0.178E-03
DAV:   3    -0.415635249653E+02    0.11015E-07   -0.13491E-07 12996   0.454E-03    0.820E-04
DAV:   4    -0.415635249681E+02   -0.27899E-08   -0.45796E-08 10680   0.238E-03
  13 F= -.41563525E+02 E0= -.41561173E+02  d E =-.140672E-05
 curvature:  -1.13 expect dE=-0.547E-06 dE for cont linesearch -0.504E-07
 trial: gam= 0.00000 g(F)=  0.343E-06 g(S)=  0.140E-06 ort = 0.293E-06 (trialstep = 0.131E+01)
 search vector abs. value=  0.483E-06
 bond charge predicted
       N       E                     dE             d eps       ncg     rms          rms(c)
DAV:   1    -0.415635260183E+02   -0.10530E-05   -0.14371E-04 11552   0.954E-02    0.906E-03
DAV:   2    -0.415635255065E+02    0.51185E-06   -0.12790E-05 12284   0.492E-02    0.433E-03
DAV:   3    -0.415635252177E+02    0.28874E-06   -0.97331E-07 14116   0.125E-02    0.212E-03
DAV:   4    -0.415635250543E+02    0.16348E-06   -0.19423E-07 14592   0.602E-03    0.422E-04
DAV:   5    -0.415635250461E+02    0.81845E-08   -0.83951E-08 10592   0.232E-03
  14 F= -.41563525E+02 E0= -.41561171E+02  d E =-.779460E-07
 trial-energy change:   -0.000000  1 .order   -0.000000   -0.000001    0.000000
 step:   0.6953(harm=  0.9074)  dis= 0.00006  next Energy=   -41.563525 (dE=-0.153E-06)
 bond charge predicted
       N       E                     dE             d eps       ncg     rms          rms(c)
DAV:   1    -0.415635252262E+02   -0.17194E-06   -0.31539E-05 11544   0.449E-02    0.421E-03
DAV:   2    -0.415635250977E+02    0.12848E-06   -0.28093E-06 12280   0.231E-02    0.202E-03
DAV:   3    -0.415635251015E+02   -0.37485E-08   -0.21258E-07 14120   0.591E-03    0.996E-04
DAV:   4    -0.415635251181E+02   -0.16626E-07   -0.41419E-08 11332   0.280E-03    0.203E-04
DAV:   5    -0.415635251262E+02   -0.81313E-08   -0.19964E-08  7412   0.120E-03
  15 F= -.41563525E+02 E0= -.41561172E+02  d E =-.158102E-06
 curvature:  -0.33 expect dE=-0.960E-07 dE for cont linesearch -0.432E-08
 trial: gam= 0.44431 g(F)=  0.167E-06 g(S)=  0.128E-06 ort = 0.800E-07 (trialstep = 0.118E+01)
 search vector abs. value=  0.461E-06
 bond charge predicted
       N       E                     dE             d eps       ncg     rms          rms(c)
DAV:   1    -0.415635258966E+02   -0.77848E-06   -0.12258E-04 12400   0.873E-02    0.790E-03
DAV:   2    -0.415635253839E+02    0.51264E-06   -0.87511E-06 12364   0.422E-02    0.336E-03
DAV:   3    -0.415635253466E+02    0.37379E-07   -0.62859E-07 14644   0.997E-03    0.165E-03
DAV:   4    -0.415635253472E+02   -0.65711E-09   -0.91182E-08 13672   0.472E-03
  16 F= -.41563525E+02 E0= -.41561173E+02  d E =-.220993E-06
 trial-energy change:   -0.000000  1 .order   -0.000000   -0.000000    0.000000
 step:   0.9899(harm=  0.7824)  dis= 0.00007  next Energy=   -41.563525 (dE=-0.237E-06)
 bond charge predicted
       N       E                     dE             d eps       ncg     rms          rms(c)
DAV:   1    -0.415635253800E+02   -0.33416E-07   -0.32651E-06 12316   0.138E-02    0.124E-03
DAV:   2    -0.415635253732E+02    0.67676E-08   -0.25675E-07 11568   0.720E-03    0.569E-04
DAV:   3    -0.415635253546E+02    0.18587E-07   -0.12121E-08  5196   0.167E-03    0.284E-04
DAV:   4    -0.415635253393E+02    0.15347E-07   -0.53871E-09  5096   0.899E-04    0.101E-04
DAV:   5    -0.415635253352E+02    0.40855E-08   -0.30692E-09  5040   0.581E-04
  17 F= -.41563525E+02 E0= -.41561173E+02  d E =-.208966E-06
 curvature:  -0.40 expect dE=-0.753E-07 dE for cont linesearch -0.497E-08
 trial: gam= 0.46487 g(F)=  0.134E-06 g(S)=  0.535E-07 ort = 0.756E-07 (trialstep = 0.115E+01)
 search vector abs. value=  0.358E-06
 bond charge predicted
       N       E                     dE             d eps       ncg     rms          rms(c)
DAV:   1    -0.415635255511E+02   -0.21182E-06   -0.97635E-05  9956   0.583E-02    0.357E-03
DAV:   2    -0.415635255926E+02   -0.41510E-07   -0.28934E-06 11748   0.200E-02    0.178E-03
DAV:   3    -0.415635255249E+02    0.67748E-07   -0.23788E-07 12412   0.592E-03    0.907E-04
DAV:   4    -0.415635254905E+02    0.34375E-07   -0.51725E-08 11404   0.296E-03    0.205E-04
DAV:   5    -0.415635254879E+02    0.26052E-08   -0.19229E-08  7136   0.121E-03
  18 F= -.41563525E+02 E0= -.41561174E+02  d E =-.152691E-06
 trial-energy change:   -0.000000  1 .order   -0.000000   -0.000000   -0.000000
 step:   1.8087(harm=  1.8087)  dis= 0.00012  next Energy=   -41.563526 (dE=-0.202E-06)
 bond charge predicted
       N       E                     dE             d eps       ncg     rms          rms(c)
DAV:   1    -0.415635255444E+02   -0.53949E-07   -0.32821E-05  9960   0.337E-02    0.207E-03
DAV:   2    -0.415635255636E+02   -0.19198E-07   -0.96254E-07 11796   0.114E-02    0.104E-03
DAV:   3    -0.415635255334E+02    0.30226E-07   -0.78979E-08 11704   0.341E-03    0.526E-04
DAV:   4    -0.415635255180E+02    0.15420E-07   -0.13246E-08  6272   0.173E-03    0.132E-04
DAV:   5    -0.415635255160E+02    0.20073E-08   -0.96019E-09  5628   0.876E-04
  19 F= -.41563526E+02 E0= -.41561174E+02  d E =-.180790E-06
 curvature:  -1.45 expect dE=-0.230E-06 dE for cont linesearch -0.175E-08
 trial: gam= 0.85725 g(F)=  0.128E-06 g(S)=  0.306E-07 ort = 0.208E-07 (trialstep = 0.100E+01)
 search vector abs. value=  0.457E-06
 bond charge predicted
       N       E                     dE             d eps       ncg     rms          rms(c)
DAV:   1    -0.415635255795E+02   -0.61558E-07   -0.97350E-05  9880   0.561E-02    0.286E-03
DAV:   2    -0.415635256846E+02   -0.10501E-06   -0.25239E-06 11904   0.162E-02    0.156E-03
DAV:   3    -0.415635256293E+02    0.55277E-07   -0.20787E-07 12380   0.493E-03    0.807E-04
DAV:   4    -0.415635256057E+02    0.23611E-07   -0.42374E-08 10856   0.286E-03    0.156E-04
DAV:   5    -0.415635256056E+02    0.92768E-10   -0.18840E-08  7260   0.120E-03
  20 F= -.41563526E+02 E0= -.41561174E+02  d E =-.895961E-07
 trial-energy change:   -0.000000  1 .order   -0.000000   -0.000000   -0.000000
 step:   1.1089(harm=  1.1089)  dis= 0.00008  next Energy=   -41.563526 (dE=-0.977E-07)
 bond charge predicted
       N       E                     dE             d eps       ncg     rms          rms(c)
DAV:   1    -0.415635256107E+02   -0.50368E-08   -0.11569E-06  9992   0.612E-03    0.328E-04
DAV:   2    -0.415635256135E+02   -0.27530E-08   -0.29823E-08  9096   0.172E-03
  21 F= -.41563526E+02 E0= -.41561174E+02  d E =-.974787E-07
 curvature:  -1.44 expect dE=-0.273E-06 dE for cont linesearch -0.418E-12
 trial: gam= 1.13568 g(F)=  0.286E-07 g(S)=  0.161E-06 ort =-0.365E-09 (trialstep = 0.600E+00)
 search vector abs. value=  0.779E-06
 reached required accuracy - stopping structural energy minimisation
 writing wavefunctions
Tue Jan  4 00:15:59 CST 2022
