Mon Jan  3 23:15:32 CST 2022
 running on   48 total cores
 distrk:  each k-point on   48 cores,    1 groups
 distr:  one band on   24 cores,    2 groups
 using from now: INCAR     
 vasp.5.3.5 31Mar14 (build Jan 11 2016 19:50:55) complex                        
  
 POSCAR found type information on POSCAR  Zn Ga N  O 
 POSCAR found :  4 types and       8 ions
 scaLAPACK will be used

 ----------------------------------------------------------------------------- 
|                                                                             |
|           W    W    AA    RRRRR   N    N  II  N    N   GGGG   !!!           |
|           W    W   A  A   R    R  NN   N  II  NN   N  G    G  !!!           |
|           W    W  A    A  R    R  N N  N  II  N N  N  G       !!!           |
|           W WW W  AAAAAA  RRRRR   N  N N  II  N  N N  G  GGG   !            |
|           WW  WW  A    A  R   R   N   NN  II  N   NN  G    G                |
|           W    W  A    A  R    R  N    N  II  N    N   GGGG   !!!           |
|                                                                             |
|      For optimal performance we recommend to set                            |
|        NCORE= 4 - approx SQRT( number of cores)                             |
|      NCORE specifies how many cores store one orbital (NPAR=cpu/NCORE).     |
|      This setting can  greatly improve the performance of VASP for DFT.     |
|      The default, NPAR=number of cores might be grossly inefficient         |
|      on modern multi-core architectures or massively parallel machines.     |
|      Do your own testing !!!!                                               |
|      Unfortunately you need to use the default for GW and RPA calculations. |
|      (for HF NCORE is supported but not extensively tested yet)             |
|                                                                             |
 ----------------------------------------------------------------------------- 

 LDA part: xc-table for Pade appr. of Perdew
 POSCAR, INCAR and KPOINTS ok, starting setup
 WARNING: small aliasing (wrap around) errors must be expected
 FFT: planning ...
 WAVECAR not read
 entering main loop
       N       E                     dE             d eps       ncg     rms          rms(c)
DAV:   1     0.903281600989E+03    0.90328E+03   -0.42330E+04 10188   0.328E+03
DAV:   2     0.146168294310E+03   -0.75711E+03   -0.72825E+03  9904   0.780E+02
DAV:   3    -0.281619026068E+02   -0.17433E+03   -0.16889E+03 11356   0.265E+02
DAV:   4    -0.437540834379E+02   -0.15592E+02   -0.15412E+02 12184   0.799E+01
DAV:   5    -0.442524301057E+02   -0.49835E+00   -0.49624E+00 12524   0.141E+01    0.159E+01
DAV:   6    -0.368752797491E+02    0.73772E+01   -0.21926E+01 19140   0.832E+01    0.736E+00
DAV:   7    -0.373789950649E+02   -0.50372E+00   -0.83174E+00 10676   0.208E+01    0.480E+00
DAV:   8    -0.372804196578E+02    0.98575E-01   -0.11145E+00 15492   0.923E+00    0.226E+00
DAV:   9    -0.372438809619E+02    0.36539E-01   -0.23280E-01 13296   0.588E+00    0.630E-01
DAV:  10    -0.372456786616E+02   -0.17977E-02   -0.50457E-02 11748   0.207E+00    0.361E-01
DAV:  11    -0.372462017454E+02   -0.52308E-03   -0.11153E-02 12664   0.896E-01    0.184E-01
DAV:  12    -0.372464609231E+02   -0.25918E-03   -0.18802E-03 11344   0.629E-01    0.810E-02
DAV:  13    -0.372464546322E+02    0.62909E-05   -0.65307E-04 12652   0.279E-01    0.309E-02
DAV:  14    -0.372464645745E+02   -0.99423E-05   -0.91931E-05 11548   0.108E-01    0.131E-02
DAV:  15    -0.372464751781E+02   -0.10604E-04   -0.26576E-05 11156   0.562E-02    0.784E-03
DAV:  16    -0.372464771676E+02   -0.19894E-05   -0.64112E-06 11720   0.358E-02    0.355E-03
DAV:  17    -0.372464773815E+02   -0.21396E-06   -0.19921E-06 14176   0.144E-02    0.256E-03
DAV:  18    -0.372464773833E+02   -0.17926E-08   -0.58283E-07 10704   0.583E-03    0.160E-03
DAV:  19    -0.372464773560E+02    0.27376E-07   -0.17080E-07 14004   0.338E-03    0.853E-04
DAV:  20    -0.372464773059E+02    0.50064E-07   -0.84485E-08 11248   0.370E-03    0.234E-04
DAV:  21    -0.372464773003E+02    0.56284E-08   -0.14575E-08  6456   0.100E-03
   1 F= -.37246477E+02 E0= -.37246435E+02  d E =-.372465E+02
 curvature:   0.00 expect dE= 0.000E+00 dE for cont linesearch  0.000E+00
 trial: gam= 0.00000 g(F)=  0.543E-04 g(S)=  0.247E-04 ort = 0.000E+00 (trialstep = 0.100E+01)
 search vector abs. value=  0.790E-04
 bond charge predicted
       N       E                     dE             d eps       ncg     rms          rms(c)
DAV:   1    -0.372466530041E+02   -0.17570E-03   -0.15356E-02 10712   0.121E+00    0.121E-01
DAV:   2    -0.372465273087E+02    0.12570E-03   -0.21793E-03 11996   0.627E-01    0.485E-02
DAV:   3    -0.372465075985E+02    0.19710E-04   -0.16915E-04 14808   0.156E-01    0.243E-02
DAV:   4    -0.372464967526E+02    0.10846E-04   -0.27807E-05 14488   0.781E-02    0.756E-03
DAV:   5    -0.372464964360E+02    0.31656E-06   -0.83040E-06 11076   0.321E-02    0.278E-03
DAV:   6    -0.372464964331E+02    0.29290E-08   -0.11808E-06 11644   0.103E-02    0.208E-03
DAV:   7    -0.372464963744E+02    0.58653E-07   -0.96383E-08 11320   0.563E-03    0.130E-03
DAV:   8    -0.372464962589E+02    0.11550E-06   -0.39451E-08 10192   0.266E-03    0.241E-04
DAV:   9    -0.372464962588E+02    0.13370E-09   -0.21496E-08  8184   0.190E-03
   2 F= -.37246496E+02 E0= -.37246453E+02  d E =-.189585E-04
 trial-energy change:   -0.000019  1 .order   -0.000020   -0.000079    0.000039
 step:   0.6575(harm=  0.6681)  dis= 0.00055  next Energy=   -37.246503 (dE=-0.257E-04)
 bond charge predicted
       N       E                     dE             d eps       ncg     rms          rms(c)
DAV:   1    -0.372465220828E+02   -0.25824E-04   -0.18039E-03 10712   0.415E-01    0.415E-02
DAV:   2    -0.372465074323E+02    0.14650E-04   -0.25595E-04 12040   0.214E-01    0.166E-02
DAV:   3    -0.372465046646E+02    0.27677E-05   -0.19671E-05 14828   0.531E-02    0.833E-03
DAV:   4    -0.372465031232E+02    0.15414E-05   -0.32476E-06 14484   0.267E-02    0.259E-03
DAV:   5    -0.372465030105E+02    0.11270E-06   -0.96997E-07 11096   0.110E-02    0.955E-04
DAV:   6    -0.372465030342E+02   -0.23611E-07   -0.13907E-07 11260   0.351E-03    0.713E-04
DAV:   7    -0.372465030525E+02   -0.18370E-07   -0.10171E-08  6196   0.193E-03    0.437E-04
DAV:   8    -0.372465030931E+02   -0.40558E-07   -0.42448E-09  5980   0.985E-04    0.974E-05
DAV:   9    -0.372465030922E+02    0.91450E-09   -0.39016E-09  5780   0.958E-04
   3 F= -.37246503E+02 E0= -.37246460E+02  d E =-.257919E-04
 curvature:  -0.33 expect dE=-0.515E-05 dE for cont linesearch -0.125E-08
 trial: gam= 0.18853 g(F)=  0.115E-04 g(S)=  0.396E-05 ort = 0.543E-06 (trialstep = 0.932E+00)
 search vector abs. value=  0.185E-04
 bond charge predicted
       N       E                     dE             d eps       ncg     rms          rms(c)
DAV:   1    -0.372465112135E+02   -0.81204E-05   -0.32713E-03  9888   0.337E-01    0.238E-02
DAV:   2    -0.372465156436E+02   -0.44301E-05   -0.12918E-04 10988   0.106E-01    0.119E-02
DAV:   3    -0.372465142549E+02    0.13887E-05   -0.94425E-06 13028   0.315E-02    0.633E-03
DAV:   4    -0.372465135770E+02    0.67792E-06   -0.16292E-06 12688   0.174E-02    0.125E-03
DAV:   5    -0.372465135980E+02   -0.21056E-07   -0.64790E-07 10752   0.679E-03    0.710E-04
DAV:   6    -0.372465136102E+02   -0.12174E-07   -0.42984E-08 11124   0.220E-03    0.349E-04
DAV:   7    -0.372465136163E+02   -0.61227E-08   -0.63790E-09  6172   0.765E-04
   4 F= -.37246514E+02 E0= -.37246471E+02  d E =-.105241E-04
 trial-energy change:   -0.000011  1 .order   -0.000010   -0.000014   -0.000006
 step:   1.5430(harm=  1.6465)  dis= 0.00062  next Energy=   -37.246516 (dE=-0.126E-04)
 bond charge predicted
       N       E                     dE             d eps       ncg     rms          rms(c)
DAV:   1    -0.372465151101E+02   -0.14999E-05   -0.14100E-03  9884   0.221E-01    0.156E-02
DAV:   2    -0.372465170592E+02   -0.19491E-05   -0.55596E-05 10996   0.695E-02    0.781E-03
DAV:   3    -0.372465164229E+02    0.63632E-06   -0.40614E-06 13020   0.207E-02    0.415E-03
DAV:   4    -0.372465161179E+02    0.30502E-06   -0.70502E-07 12672   0.114E-02    0.824E-04
DAV:   5    -0.372465161223E+02   -0.43947E-08   -0.27934E-07 10752   0.444E-03    0.468E-04
DAV:   6    -0.372465161299E+02   -0.75988E-08   -0.16124E-08  6668   0.142E-03
   5 F= -.37246516E+02 E0= -.37246474E+02  d E =-.130377E-04
 curvature:  -0.96 expect dE=-0.927E-05 dE for cont linesearch -0.496E-07
 trial: gam= 0.57933 g(F)=  0.714E-05 g(S)=  0.255E-05 ort = 0.978E-06 (trialstep = 0.105E+01)
 search vector abs. value=  0.170E-04
 bond charge predicted
       N       E                     dE             d eps       ncg     rms          rms(c)
DAV:   1    -0.372465439652E+02   -0.27843E-04   -0.34505E-03  9976   0.442E-01    0.457E-02
DAV:   2    -0.372465304659E+02    0.13499E-04   -0.31253E-04 11244   0.227E-01    0.204E-02
DAV:   3    -0.372465261377E+02    0.43282E-05   -0.25075E-05 13600   0.641E-02    0.104E-02
DAV:   4    -0.372465238693E+02    0.22685E-05   -0.44505E-06 14632   0.336E-02    0.277E-03
DAV:   5    -0.372465237807E+02    0.88547E-07   -0.18772E-06 10768   0.133E-02    0.955E-04
DAV:   6    -0.372465237960E+02   -0.15289E-07   -0.21823E-07 12268   0.465E-03    0.760E-04
DAV:   7    -0.372465238051E+02   -0.90540E-08   -0.13710E-08  6952   0.235E-03
   6 F= -.37246524E+02 E0= -.37246481E+02  d E =-.767520E-05
 trial-energy change:   -0.000008  1 .order   -0.000007   -0.000011   -0.000004
 step:   1.5650(harm=  1.7055)  dis= 0.00047  next Energy=   -37.246525 (dE=-0.870E-05)
 bond charge predicted
       N       E                     dE             d eps       ncg     rms          rms(c)
DAV:   1    -0.372465300816E+02   -0.62856E-05   -0.81291E-04  9980   0.214E-01    0.222E-02
DAV:   2    -0.372465269543E+02    0.31274E-05   -0.73402E-05 11248   0.110E-01    0.991E-03
DAV:   3    -0.372465258326E+02    0.11217E-05   -0.59191E-06 13612   0.312E-02    0.504E-03
DAV:   4    -0.372465252344E+02    0.59817E-06   -0.10579E-06 14636   0.164E-02    0.135E-03
DAV:   5    -0.372465251886E+02    0.45880E-07   -0.44232E-07 10748   0.645E-03    0.466E-04
DAV:   6    -0.372465251923E+02   -0.37312E-08   -0.51385E-08  9668   0.225E-03
   7 F= -.37246525E+02 E0= -.37246482E+02  d E =-.906240E-05
 curvature:  -1.35 expect dE=-0.849E-05 dE for cont linesearch -0.113E-06
 trial: gam= 0.64161 g(F)=  0.448E-05 g(S)=  0.181E-05 ort = 0.119E-05 (trialstep = 0.116E+01)
 search vector abs. value=  0.148E-04
 bond charge predicted
       N       E                     dE             d eps       ncg     rms          rms(c)
DAV:   1    -0.372465329847E+02   -0.77962E-05   -0.37070E-03  9920   0.351E-01    0.271E-02
DAV:   2    -0.372465347989E+02   -0.18141E-05   -0.12913E-04 11488   0.105E-01    0.154E-02
DAV:   3    -0.372465316004E+02    0.31984E-05   -0.98641E-06 13260   0.354E-02    0.697E-03
DAV:   4    -0.372465308500E+02    0.75046E-06   -0.26717E-06 11744   0.180E-02    0.122E-03
DAV:   5    -0.372465309115E+02   -0.61581E-07   -0.82592E-07 10856   0.813E-03    0.845E-04
DAV:   6    -0.372465309280E+02   -0.16446E-07   -0.58462E-08 12100   0.259E-03    0.466E-04
DAV:   7    -0.372465309367E+02   -0.86679E-08   -0.82184E-09  6220   0.158E-03
   8 F= -.37246531E+02 E0= -.37246488E+02  d E =-.574438E-05
 trial-energy change:   -0.000006  1 .order   -0.000006   -0.000008   -0.000003
 step:   1.6379(harm=  1.7999)  dis= 0.00049  next Energy=   -37.246532 (dE=-0.637E-05)
 bond charge predicted
       N       E                     dE             d eps       ncg     rms          rms(c)
DAV:   1    -0.372465321313E+02   -0.12033E-05   -0.64445E-04  9920   0.146E-01    0.113E-02
DAV:   2    -0.372465324667E+02   -0.33537E-06   -0.22476E-05 11496   0.435E-02    0.640E-03
DAV:   3    -0.372465318897E+02    0.57700E-06   -0.17286E-06 13272   0.148E-02    0.291E-03
DAV:   4    -0.372465317628E+02    0.12690E-06   -0.46719E-07 11784   0.746E-03    0.516E-04
DAV:   5    -0.372465317726E+02   -0.98489E-08   -0.14411E-07 10872   0.338E-03    0.356E-04
DAV:   6    -0.372465317793E+02   -0.66284E-08   -0.84047E-09  6196   0.108E-03
   9 F= -.37246532E+02 E0= -.37246489E+02  d E =-.658698E-05
 curvature:  -1.77 expect dE=-0.112E-04 dE for cont linesearch -0.453E-07
 trial: gam= 1.06257 g(F)=  0.510E-05 g(S)=  0.122E-05 ort = 0.616E-06 (trialstep = 0.762E+00)
 search vector abs. value=  0.244E-04
 bond charge predicted
       N       E                     dE             d eps       ncg     rms          rms(c)
DAV:   1    -0.372465369638E+02   -0.51911E-05   -0.26067E-03  9904   0.286E-01    0.205E-02
DAV:   2    -0.372465384541E+02   -0.14904E-05   -0.71754E-05 11472   0.702E-02    0.120E-02
DAV:   3    -0.372465361150E+02    0.23391E-05   -0.52015E-06 14056   0.241E-02    0.378E-03
DAV:   4    -0.372465359919E+02    0.12313E-06   -0.13598E-06 10948   0.130E-02    0.943E-04
DAV:   5    -0.372465360110E+02   -0.19077E-07   -0.29456E-07 11608   0.620E-03    0.704E-04
DAV:   6    -0.372465360087E+02    0.22997E-08   -0.27806E-08  8204   0.270E-03
  10 F= -.37246536E+02 E0= -.37246493E+02  d E =-.422943E-05
 trial-energy change:   -0.000004  1 .order   -0.000004   -0.000005   -0.000003
 step:   1.8290(harm=  1.8290)  dis= 0.00066  next Energy=   -37.246538 (dE=-0.638E-05)
 bond charge predicted
       N       E                     dE             d eps       ncg     rms          rms(c)
DAV:   1    -0.372465402460E+02   -0.42350E-05   -0.51107E-03  9904   0.400E-01    0.287E-02
DAV:   2    -0.372465431618E+02   -0.29158E-05   -0.14095E-04 11464   0.986E-02    0.168E-02
DAV:   3    -0.372465385720E+02    0.45898E-05   -0.10288E-05 14056   0.347E-02    0.536E-03
DAV:   4    -0.372465383220E+02    0.25007E-06   -0.27151E-06 10940   0.192E-02    0.133E-03
DAV:   5    -0.372465383631E+02   -0.41182E-07   -0.59932E-07 11628   0.884E-03    0.994E-04
DAV:   6    -0.372465383591E+02    0.40800E-08   -0.59263E-08  9396   0.377E-03
  11 F= -.37246538E+02 E0= -.37246495E+02  d E =-.657979E-05
 curvature:  -3.20 expect dE=-0.146E-04 dE for cont linesearch -0.213E-08
 trial: gam= 0.76610 g(F)=  0.354E-05 g(S)=  0.103E-05 ort = 0.127E-06 (trialstep = 0.975E+00)
 search vector abs. value=  0.191E-04
 bond charge predicted
       N       E                     dE             d eps       ncg     rms          rms(c)
DAV:   1    -0.372465482836E+02   -0.99204E-05   -0.32012E-03  9988   0.342E-01    0.305E-02
DAV:   2    -0.372465466127E+02    0.16709E-05   -0.13631E-04 11248   0.133E-01    0.160E-02
DAV:   3    -0.372465432316E+02    0.33811E-05   -0.11554E-05 13104   0.391E-02    0.785E-03
DAV:   4    -0.372465421240E+02    0.11076E-05   -0.26463E-06 13448   0.206E-02    0.123E-03
DAV:   5    -0.372465421983E+02   -0.74328E-07   -0.10285E-06 10676   0.864E-03    0.827E-04
DAV:   6    -0.372465422108E+02   -0.12513E-07   -0.40722E-08 10624   0.213E-03    0.468E-04
DAV:   7    -0.372465422224E+02   -0.11631E-07   -0.95208E-09  6096   0.177E-03    0.210E-04
DAV:   8    -0.372465422296E+02   -0.71254E-08   -0.47631E-09  5916   0.971E-04
  12 F= -.37246542E+02 E0= -.37246499E+02  d E =-.387051E-05
 trial-energy change:   -0.000004  1 .order   -0.000003   -0.000005   -0.000002
 step:   1.1918(harm=  1.5963)  dis= 0.00037  next Energy=   -37.246542 (dE=-0.407E-05)
 bond charge predicted
       N       E                     dE             d eps       ncg     rms          rms(c)
DAV:   1    -0.372465428698E+02   -0.64736E-06   -0.15741E-04  9996   0.757E-02    0.676E-03
DAV:   2    -0.372465428149E+02    0.54913E-07   -0.66802E-06 11260   0.295E-02    0.355E-03
DAV:   3    -0.372465426135E+02    0.20134E-06   -0.56648E-07 13056   0.870E-03    0.174E-03
DAV:   4    -0.372465425505E+02    0.63090E-07   -0.13189E-07 13372   0.459E-03    0.274E-04
DAV:   5    -0.372465425529E+02   -0.24943E-08   -0.51005E-08 10492   0.193E-03
  13 F= -.37246543E+02 E0= -.37246500E+02  d E =-.419389E-05
 curvature:  -1.88 expect dE=-0.354E-05 dE for cont linesearch -0.143E-06
 ZBRENT: increasing intervall
 opt :   1.6244  next Energy=   -37.246543 (dE=-0.445E-05)
 bond charge predicted
       N       E                     dE             d eps       ncg     rms          rms(c)
DAV:   1    -0.372465439815E+02   -0.14311E-05   -0.62933E-04  9988   0.151E-01    0.135E-02
DAV:   2    -0.372465437022E+02    0.27935E-06   -0.26794E-05 11232   0.591E-02    0.710E-03
DAV:   3    -0.372465429904E+02    0.71177E-06   -0.22650E-06 13128   0.173E-02    0.348E-03
DAV:   4    -0.372465427619E+02    0.22848E-06   -0.51495E-07 13452   0.915E-03    0.541E-04
DAV:   5    -0.372465427748E+02   -0.12864E-07   -0.20199E-07 10680   0.383E-03    0.365E-04
DAV:   6    -0.372465427803E+02   -0.54943E-08   -0.63290E-09  6080   0.944E-04
  14 F= -.37246543E+02 E0= -.37246500E+02  d E =-.442123E-05
 curvature:  -3.38 expect dE=-0.108E-04 dE for cont linesearch -0.977E-08
 trial: gam= 0.74519 g(F)=  0.267E-05 g(S)=  0.517E-06 ort =-0.235E-06 (trialstep = 0.111E+01)
 search vector abs. value=  0.134E-04
 bond charge predicted
       N       E                     dE             d eps       ncg     rms          rms(c)
DAV:   1    -0.372465461777E+02   -0.34029E-05   -0.28579E-03 10032   0.303E-01    0.224E-02
DAV:   2    -0.372465480298E+02   -0.18521E-05   -0.84602E-05 12092   0.836E-02    0.136E-02
DAV:   3    -0.372465455442E+02    0.24856E-05   -0.62564E-06 13436   0.314E-02    0.472E-03
DAV:   4    -0.372465452915E+02    0.25274E-06   -0.16291E-06 11328   0.146E-02    0.104E-03
DAV:   5    -0.372465453040E+02   -0.12477E-07   -0.37267E-07 11600   0.700E-03    0.708E-04
DAV:   6    -0.372465452974E+02    0.65670E-08   -0.36185E-08  8740   0.300E-03
  15 F= -.37246545E+02 E0= -.37246502E+02  d E =-.251711E-05
 trial-energy change:   -0.000003  1 .order   -0.000002   -0.000003   -0.000001
 step:   1.1887(harm=  1.3037)  dis= 0.00035  next Energy=   -37.246545 (dE=-0.254E-05)
 bond charge predicted
       N       E                     dE             d eps       ncg     rms          rms(c)
DAV:   1    -0.372465453233E+02   -0.19325E-07   -0.16426E-05 10096   0.231E-02    0.172E-03
DAV:   2    -0.372465453297E+02   -0.63933E-08   -0.49239E-07 12028   0.647E-03    0.104E-03
DAV:   3    -0.372465453207E+02    0.89976E-08   -0.35131E-08 10204   0.282E-03
  16 F= -.37246545E+02 E0= -.37246502E+02  d E =-.254040E-05
 curvature:  -1.93 expect dE=-0.305E-05 dE for cont linesearch -0.642E-07
 trial: gam= 0.27781 g(F)=  0.110E-05 g(S)=  0.479E-06 ort = 0.668E-06 (trialstep = 0.112E+01)
 search vector abs. value=  0.299E-05
 bond charge predicted
       N       E                     dE             d eps       ncg     rms          rms(c)
DAV:   1    -0.372465483934E+02   -0.30637E-05   -0.58197E-04  9908   0.139E-01    0.138E-02
DAV:   2    -0.372465477527E+02    0.64074E-06   -0.20203E-05 11792   0.455E-02    0.809E-03
DAV:   3    -0.372465466563E+02    0.10964E-05   -0.19986E-06 14072   0.196E-02    0.286E-03
DAV:   4    -0.372465465703E+02    0.86023E-07   -0.67545E-07 11208   0.997E-03    0.531E-04
DAV:   5    -0.372465465893E+02   -0.19042E-07   -0.17236E-07 11336   0.398E-03    0.459E-04
DAV:   6    -0.372465465920E+02   -0.26876E-08   -0.99956E-09  6192   0.158E-03
  17 F= -.37246547E+02 E0= -.37246504E+02  d E =-.127130E-05
 trial-energy change:   -0.000001  1 .order   -0.000001   -0.000002   -0.000001
 step:   1.7500(harm=  1.7500)  dis= 0.00025  next Energy=   -37.246547 (dE=-0.154E-05)
 bond charge predicted
       N       E                     dE             d eps       ncg     rms          rms(c)
DAV:   1    -0.372465474189E+02   -0.82958E-06   -0.18276E-04  9908   0.781E-02    0.773E-03
DAV:   2    -0.372465472291E+02    0.18977E-06   -0.63988E-06 11776   0.260E-02    0.453E-03
DAV:   3    -0.372465468738E+02    0.35529E-06   -0.63997E-07 14096   0.116E-02    0.164E-03
DAV:   4    -0.372465468452E+02    0.28605E-07   -0.21272E-07 11280   0.588E-03    0.298E-04
DAV:   5    -0.372465468528E+02   -0.75629E-08   -0.57413E-08 10240   0.233E-03
  18 F= -.37246547E+02 E0= -.37246504E+02  d E =-.153210E-05
 curvature:  -1.48 expect dE=-0.213E-05 dE for cont linesearch -0.642E-08
 trial: gam= 0.92232 g(F)=  0.105E-05 g(S)=  0.386E-06 ort = 0.114E-06 (trialstep = 0.889E+00)
 search vector abs. value=  0.419E-05
 bond charge predicted
       N       E                     dE             d eps       ncg     rms          rms(c)
DAV:   1    -0.372465511779E+02   -0.43327E-05   -0.52146E-04  9864   0.146E-01    0.166E-02
DAV:   2    -0.372465493946E+02    0.17832E-05   -0.29449E-05 11720   0.656E-02    0.890E-03
DAV:   3    -0.372465482653E+02    0.11293E-05   -0.26682E-06 13820   0.203E-02    0.414E-03
DAV:   4    -0.372465479153E+02    0.34997E-06   -0.69134E-07 13512   0.104E-02    0.687E-04
DAV:   5    -0.372465479262E+02   -0.10891E-07   -0.26268E-07 10704   0.426E-03    0.385E-04
DAV:   6    -0.372465479326E+02   -0.63628E-08   -0.91941E-09  6124   0.933E-04
  19 F= -.37246548E+02 E0= -.37246505E+02  d E =-.107980E-05
 trial-energy change:   -0.000001  1 .order   -0.000001   -0.000001   -0.000001
 step:   1.4618(harm=  1.8186)  dis= 0.00016  next Energy=   -37.246548 (dE=-0.132E-05)
 bond charge predicted
       N       E                     dE             d eps       ncg     rms          rms(c)
DAV:   1    -0.372465496780E+02   -0.17518E-05   -0.21641E-04  9864   0.943E-02    0.107E-02
DAV:   2    -0.372465489477E+02    0.73036E-06   -0.12183E-05 11728   0.423E-02    0.573E-03
DAV:   3    -0.372465484462E+02    0.50149E-06   -0.11088E-06 13868   0.131E-02    0.266E-03
DAV:   4    -0.372465482875E+02    0.15868E-06   -0.28874E-07 13488   0.669E-03    0.440E-04
DAV:   5    -0.372465482898E+02   -0.23042E-08   -0.10855E-07 10704   0.274E-03    0.249E-04
DAV:   6    -0.372465482944E+02   -0.46080E-08   -0.38033E-09  5960   0.612E-04
  20 F= -.37246548E+02 E0= -.37246505E+02  d E =-.144164E-05
 curvature:  -2.10 expect dE=-0.168E-05 dE for cont linesearch -0.660E-07
 trial: gam= 0.00000 g(F)=  0.610E-06 g(S)=  0.188E-06 ort = 0.363E-06 (trialstep = 0.100E+01)
 search vector abs. value=  0.798E-06
 bond charge predicted
       N       E                     dE             d eps       ncg     rms          rms(c)
DAV:   1    -0.372465487619E+02   -0.47207E-06   -0.15441E-04  9892   0.716E-02    0.525E-03
DAV:   2    -0.372465489531E+02   -0.19125E-06   -0.56372E-06 12104   0.197E-02    0.324E-03
DAV:   3    -0.372465488532E+02    0.99932E-07   -0.37041E-07 13884   0.628E-03    0.124E-03
DAV:   4    -0.372465488451E+02    0.80709E-08   -0.99069E-08 11276   0.397E-03
  21 F= -.37246549E+02 E0= -.37246506E+02  d E =-.550715E-06
 trial-energy change:   -0.000001  1 .order   -0.000000   -0.000001   -0.000000
 step:   1.1358(harm=  1.2383)  dis= 0.00009  next Energy=   -37.246549 (dE=-0.561E-06)
 bond charge predicted
       N       E                     dE             d eps       ncg     rms          rms(c)
DAV:   1    -0.372465488664E+02   -0.13158E-07   -0.26936E-06 10168   0.971E-03    0.729E-04
DAV:   2    -0.372465488722E+02   -0.58649E-08   -0.10422E-07 12204   0.295E-03    0.445E-04
DAV:   3    -0.372465488755E+02   -0.32733E-08   -0.71275E-09  5972   0.136E-03
  22 F= -.37246549E+02 E0= -.37246506E+02  d E =-.581082E-06
 curvature:  -0.50 expect dE=-0.312E-06 dE for cont linesearch -0.377E-08
 trial: gam= 0.68301 g(F)=  0.547E-06 g(S)=  0.758E-07 ort = 0.775E-07 (trialstep = 0.747E+00)
 search vector abs. value=  0.110E-05
 bond charge predicted
       N       E                     dE             d eps       ncg     rms          rms(c)
DAV:   1    -0.372465494434E+02   -0.57119E-06   -0.12014E-04  9856   0.605E-02    0.479E-03
DAV:   2    -0.372465494531E+02   -0.96793E-08   -0.32407E-06 11704   0.170E-02    0.275E-03
DAV:   3    -0.372465493119E+02    0.14117E-06   -0.25213E-07 11988   0.536E-03    0.106E-03
DAV:   4    -0.372465492978E+02    0.14171E-07   -0.73565E-08 11180   0.298E-03    0.202E-04
DAV:   5    -0.372465492991E+02   -0.13351E-08   -0.21996E-08  7200   0.147E-03
  23 F= -.37246549E+02 E0= -.37246506E+02  d E =-.423594E-06
 trial-energy change:   -0.000000  1 .order   -0.000000   -0.000001   -0.000000
 step:   1.8711(harm=  1.8711)  dis= 0.00021  next Energy=   -37.246550 (dE=-0.632E-06)
 bond charge predicted
       N       E                     dE             d eps       ncg     rms          rms(c)
DAV:   1    -0.372465499206E+02   -0.62286E-06   -0.27230E-04  9856   0.911E-02    0.719E-03
DAV:   2    -0.372465499378E+02   -0.17184E-07   -0.73682E-06 11720   0.257E-02    0.412E-03
DAV:   3    -0.372465496402E+02    0.29757E-06   -0.56562E-07 12164   0.823E-03    0.158E-03
DAV:   4    -0.372465496090E+02    0.31238E-07   -0.16881E-07 12184   0.470E-03    0.308E-04
DAV:   5    -0.372465496123E+02   -0.32896E-08   -0.48493E-08 10064   0.214E-03
  24 F= -.37246550E+02 E0= -.37246507E+02  d E =-.736781E-06
 curvature:  -1.52 expect dE=-0.127E-05 dE for cont linesearch -0.461E-08
 trial: gam= 1.30069 g(F)=  0.619E-06 g(S)=  0.214E-06 ort = 0.577E-07 (trialstep = 0.376E+00)
 search vector abs. value=  0.285E-05
 bond charge predicted
       N       E                     dE             d eps       ncg     rms          rms(c)
DAV:   1    -0.372465503146E+02   -0.70557E-06   -0.75374E-05 10736   0.540E-02    0.526E-03
DAV:   2    -0.372465501255E+02    0.18902E-06   -0.31716E-06 11068   0.231E-02    0.258E-03
DAV:   3    -0.372465500105E+02    0.11509E-06   -0.27108E-07 13604   0.687E-03    0.127E-03
DAV:   4    -0.372465499643E+02    0.46186E-07   -0.60535E-08 11364   0.341E-03    0.281E-04
DAV:   5    -0.372465499593E+02    0.49477E-08   -0.26251E-08  7812   0.138E-03
  25 F= -.37246550E+02 E0= -.37246507E+02  d E =-.347038E-06
 ZBRENT: can't locate minimum, use default step
 trial-energy change:   -0.000000  1 .order   -0.000000   -0.000000   -0.000000
 step:   1.5038(harm=  2.3871)  dis= 0.00026  next Energy=   -37.246551 (dE=-0.108E-05)
 bond charge predicted
       N       E                     dE             d eps       ncg     rms          rms(c)
DAV:   1    -0.372465569251E+02   -0.69608E-05   -0.67860E-04 10712   0.162E-01    0.157E-02
DAV:   2    -0.372465550398E+02    0.18853E-05   -0.28621E-05 11060   0.694E-02    0.775E-03
DAV:   3    -0.372465542217E+02    0.81810E-06   -0.24366E-06 13524   0.206E-02    0.379E-03
DAV:   4    -0.372465539083E+02    0.31346E-06   -0.56981E-07 13872   0.102E-02    0.830E-04
DAV:   5    -0.372465539013E+02    0.69922E-08   -0.22327E-07 10740   0.395E-03    0.335E-04
DAV:   6    -0.372465539068E+02   -0.54929E-08   -0.12053E-08  6160   0.139E-03
  26 F= -.37246554E+02 E0= -.37246511E+02  d E =-.429448E-05
 curvature:  -3.02 expect dE=-0.165E-05 dE for cont linesearch -0.126E-06
 ZBRENT: increasing intervall
 opt :   3.7595  next Energy=   -37.246554 (dE=-0.412E-05)
 bond charge predicted
       N       E                     dE             d eps       ncg     rms          rms(c)
DAV:   1    -0.372465654394E+02   -0.11538E-04   -0.27149E-03 10712   0.325E-01    0.315E-02
DAV:   2    -0.372465577281E+02    0.77113E-05   -0.11454E-04 11052   0.139E-01    0.155E-02
DAV:   3    -0.372465546746E+02    0.30536E-05   -0.97557E-06 13504   0.413E-02    0.759E-03
DAV:   4    -0.372465535236E+02    0.11510E-05   -0.23051E-06 13844   0.204E-02    0.166E-03
DAV:   5    -0.372465535307E+02   -0.71618E-08   -0.89182E-07 10744   0.791E-03    0.671E-04
DAV:   6    -0.372465535431E+02   -0.12412E-07   -0.57519E-08 11596   0.283E-03    0.437E-04
DAV:   7    -0.372465535531E+02   -0.99644E-08   -0.73398E-09  6152   0.175E-03
  27 F= -.37246554E+02 E0= -.37246511E+02  d E =-.394080E-05
 curvature:   4.19 expect dE= 0.125E-04 dE for cont linesearch  0.249E-06
 ZBRENT: bracketing found
 ZBRENT: interpolating
 opt :   2.5305  next Energy=   -37.246554 (dE=-0.447E-05)
 bond charge predicted
       N       E                     dE             d eps       ncg     rms          rms(c)
DAV:   1    -0.372465576260E+02   -0.40829E-05   -0.80529E-04 10716   0.177E-01    0.171E-02
DAV:   2    -0.372465551941E+02    0.24319E-05   -0.34135E-05 11016   0.757E-02    0.845E-03
DAV:   3    -0.372465544848E+02    0.70938E-06   -0.28949E-06 13492   0.225E-02    0.414E-03
DAV:   4    -0.372465542328E+02    0.25199E-06   -0.68055E-07 13840   0.111E-02    0.904E-04
DAV:   5    -0.372465542657E+02   -0.32982E-07   -0.26377E-07 10736   0.431E-03    0.364E-04
DAV:   6    -0.372465542606E+02    0.51759E-08   -0.14386E-08  6204   0.153E-03
  28 F= -.37246554E+02 E0= -.37246511E+02  d E =-.464828E-05
 curvature:  -2.96 expect dE=-0.376E-05 dE for cont linesearch -0.772E-08
 trial: gam= 1.60923 g(F)=  0.739E-06 g(S)=  0.530E-06 ort = 0.861E-07 (trialstep = 0.258E+00)
 search vector abs. value=  0.892E-05
 bond charge predicted
       N       E                     dE             d eps       ncg     rms          rms(c)
DAV:   1    -0.372465547524E+02   -0.48668E-06   -0.11123E-04  9856   0.563E-02    0.437E-03
DAV:   2    -0.372465546789E+02    0.73525E-07   -0.19146E-06 11408   0.146E-02    0.261E-03
DAV:   3    -0.372465545929E+02    0.85951E-07   -0.20130E-07 12872   0.697E-03    0.778E-04
DAV:   4    -0.372465545886E+02    0.43738E-08   -0.66238E-08 10588   0.333E-03
  29 F= -.37246555E+02 E0= -.37246512E+02  d E =-.328004E-06
 trial-energy change:   -0.000000  1 .order   -0.000000   -0.000000   -0.000000
 step:   1.0012(harm=  1.0012)  dis= 0.00031  next Energy=   -37.246555 (dE=-0.705E-06)
 bond charge predicted
       N       E                     dE             d eps       ncg     rms          rms(c)
DAV:   1    -0.372465560140E+02   -0.14211E-05   -0.92843E-04  9856   0.163E-01    0.126E-02
DAV:   2    -0.372465554558E+02    0.55821E-06   -0.15828E-05 11440   0.414E-02    0.751E-03
DAV:   3    -0.372465545953E+02    0.86047E-06   -0.16041E-06 13080   0.189E-02    0.216E-03
DAV:   4    -0.372465545648E+02    0.30487E-07   -0.54040E-07 10832   0.880E-03    0.535E-04
DAV:   5    -0.372465545661E+02   -0.13138E-08   -0.11141E-07 11456   0.358E-03    0.388E-04
DAV:   6    -0.372465545640E+02    0.21478E-08   -0.93203E-09  6032   0.153E-03
  30 F= -.37246555E+02 E0= -.37246512E+02  d E =-.303426E-06
 curvature:  -3.17 expect dE=-0.150E-05 dE for cont linesearch -0.201E-07
 trial: gam= 0.13430 g(F)=  0.325E-06 g(S)=  0.147E-06 ort = 0.238E-06 (trialstep = 0.406E+00)
 search vector abs. value=  0.697E-06
 bond charge predicted
       N       E                     dE             d eps       ncg     rms          rms(c)
DAV:   1    -0.372465547760E+02   -0.20990E-06   -0.19898E-05 10004   0.256E-02    0.213E-03
DAV:   2    -0.372465547709E+02    0.51009E-08   -0.55209E-07 12288   0.673E-03    0.128E-03
DAV:   3    -0.372465547352E+02    0.35734E-07   -0.39156E-08  9892   0.294E-03    0.323E-04
DAV:   4    -0.372465547354E+02   -0.23783E-09   -0.19006E-08  6560   0.175E-03
  31 F= -.37246555E+02 E0= -.37246512E+02  d E =-.171455E-06
 ZBRENT: can't locate minimum, use default step
 trial-energy change:   -0.000000  1 .order   -0.000000   -0.000000   -0.000000
 step:   1.6251(harm=  1.6427)  dis= 0.00010  next Energy=   -37.246555 (dE=-0.414E-06)
 bond charge predicted
       N       E                     dE             d eps       ncg     rms          rms(c)
DAV:   1    -0.372465552757E+02   -0.54052E-06   -0.17921E-04  9992   0.767E-02    0.636E-03
DAV:   2    -0.372465552391E+02    0.36653E-07   -0.50123E-06 12192   0.202E-02    0.382E-03
DAV:   3    -0.372465549697E+02    0.26935E-06   -0.40652E-07 14152   0.797E-03    0.922E-04
DAV:   4    -0.372465549704E+02   -0.63119E-09   -0.13475E-07 10856   0.422E-03    0.273E-04
DAV:   5    -0.372465549735E+02   -0.31300E-08   -0.24861E-08  8520   0.175E-03
  32 F= -.37246555E+02 E0= -.37246512E+02  d E =-.409501E-06
 curvature:  -1.14 expect dE=-0.466E-06 dE for cont linesearch -0.188E-11
 trial: gam= 0.95743 g(F)=  0.274E-06 g(S)=  0.136E-06 ort = 0.107E-08 (trialstep = 0.431E+00)
 search vector abs. value=  0.105E-05
 bond charge predicted
       N       E                     dE             d eps       ncg     rms          rms(c)
DAV:   1    -0.372465552564E+02   -0.28603E-06   -0.32257E-05  9864   0.332E-02    0.336E-03
DAV:   2    -0.372465552188E+02    0.37574E-07   -0.11264E-06 12032   0.120E-02    0.187E-03
DAV:   3    -0.372465551474E+02    0.71394E-07   -0.10838E-07 12736   0.421E-03    0.772E-04
DAV:   4    -0.372465551399E+02    0.75761E-08   -0.32894E-08  8588   0.214E-03
  33 F= -.37246555E+02 E0= -.37246512E+02  d E =-.166359E-06
 trial-energy change:   -0.000000  1 .order   -0.000000   -0.000000   -0.000000
 step:   1.4967(harm=  1.4967)  dis= 0.00010  next Energy=   -37.246555 (dE=-0.308E-06)
 bond charge predicted
       N       E                     dE             d eps       ncg     rms          rms(c)
DAV:   1    -0.372465559909E+02   -0.84351E-06   -0.19684E-04  9868   0.822E-02    0.827E-03
DAV:   2    -0.372465557025E+02    0.28847E-06   -0.68510E-06 12024   0.296E-02    0.460E-03
DAV:   3    -0.372465553381E+02    0.36439E-06   -0.67110E-07 13512   0.103E-02    0.189E-03
DAV:   4    -0.372465552910E+02    0.47120E-07   -0.20526E-07 11828   0.517E-03    0.281E-04
DAV:   5    -0.372465553003E+02   -0.93719E-08   -0.60925E-08 10488   0.208E-03
  34 F= -.37246555E+02 E0= -.37246512E+02  d E =-.326842E-06
 curvature:  -1.91 expect dE=-0.839E-06 dE for cont linesearch -0.133E-07
 trial: gam= 0.00000 g(F)=  0.336E-06 g(S)=  0.103E-06 ort =-0.854E-07 (trialstep = 0.644E+00)
 search vector abs. value=  0.439E-06
 bond charge predicted
       N       E                     dE             d eps       ncg     rms          rms(c)
DAV:   1    -0.372465555307E+02   -0.23975E-06   -0.34967E-05  9856   0.372E-02    0.338E-03
DAV:   2    -0.372465555550E+02   -0.24336E-07   -0.23734E-06 12112   0.155E-02    0.187E-03
DAV:   3    -0.372465554953E+02    0.59759E-07   -0.15067E-07 12228   0.468E-03    0.925E-04
DAV:   4    -0.372465554626E+02    0.32689E-07   -0.30372E-08  8728   0.268E-03    0.275E-04
DAV:   5    -0.372465554559E+02    0.66625E-08   -0.18906E-08  7220   0.121E-03
  35 F= -.37246555E+02 E0= -.37246512E+02  d E =-.155599E-06
 trial-energy change:   -0.000000  1 .order   -0.000000   -0.000000   -0.000000
 step:   0.8042(harm=  0.8042)  dis= 0.00005  next Energy=   -37.246555 (dE=-0.176E-06)
 bond charge predicted
       N       E                     dE             d eps       ncg     rms          rms(c)
DAV:   1    -0.372465554724E+02   -0.97643E-08   -0.21677E-06  9856   0.929E-03    0.857E-04
DAV:   2    -0.372465554767E+02   -0.43783E-08   -0.15159E-07 12216   0.388E-03    0.471E-04
DAV:   3    -0.372465554675E+02    0.92914E-08   -0.76658E-09  5980   0.115E-03
  36 F= -.37246555E+02 E0= -.37246512E+02  d E =-.167113E-06
 curvature:  -0.40 expect dE=-0.859E-07 dE for cont linesearch -0.133E-09
 trial: gam= 0.45942 g(F)=  0.108E-06 g(S)=  0.106E-06 ort = 0.121E-07 (trialstep = 0.676E+00)
 search vector abs. value=  0.317E-06
 bond charge predicted
       N       E                     dE             d eps       ncg     rms          rms(c)
DAV:   1    -0.372465556987E+02   -0.22201E-06   -0.22715E-05  9864   0.285E-02    0.319E-03
DAV:   2    -0.372465556154E+02    0.83305E-07   -0.95611E-07 12088   0.110E-02    0.184E-03
DAV:   3    -0.372465555826E+02    0.32877E-07   -0.12008E-07 11744   0.479E-03    0.686E-04
DAV:   4    -0.372465555827E+02   -0.10505E-09   -0.46168E-08 10572   0.234E-03
  37 F= -.37246556E+02 E0= -.37246513E+02  d E =-.115220E-06
 trial-energy change:   -0.000000  1 .order   -0.000000   -0.000000   -0.000000
 step:   1.0642(harm=  1.0642)  dis= 0.00004  next Energy=   -37.246556 (dE=-0.117E-06)
 bond charge predicted
       N       E                     dE             d eps       ncg     rms          rms(c)
DAV:   1    -0.372465556465E+02   -0.63914E-07   -0.75056E-06  9876   0.164E-02    0.183E-03
DAV:   2    -0.372465556200E+02    0.26438E-07   -0.30812E-07 12096   0.622E-03    0.105E-03
DAV:   3    -0.372465556176E+02    0.24529E-08   -0.37331E-08  9944   0.263E-03
  38 F= -.37246556E+02 E0= -.37246513E+02  d E =-.150138E-06
 curvature:  -0.77 expect dE=-0.114E-06 dE for cont linesearch -0.261E-07
 trial: gam= 0.14882 g(F)=  0.660E-07 g(S)=  0.821E-07 ort = 0.104E-06 (trialstep = 0.754E+00)
 search vector abs. value=  0.186E-06
 bond charge predicted
       N       E                     dE             d eps       ncg     rms          rms(c)
DAV:   1    -0.372465557923E+02   -0.17224E-06   -0.15683E-05 10192   0.283E-02    0.348E-03
DAV:   2    -0.372465556819E+02    0.11035E-06   -0.12548E-06 11744   0.147E-02    0.192E-03
DAV:   3    -0.372465556733E+02    0.85934E-08   -0.11608E-07 13128   0.452E-03    0.886E-04
DAV:   4    -0.372465556803E+02   -0.70108E-08   -0.27522E-08  8548   0.225E-03
  39 F= -.37246556E+02 E0= -.37246513E+02  d E =-.627538E-07
 trial-energy change:   -0.000000  1 .order   -0.000000   -0.000000   -0.000000
 step:   0.8395(harm=  0.8395)  dis= 0.00002  next Energy=   -37.246556 (dE=-0.687E-07)
 bond charge predicted
       N       E                     dE             d eps       ncg     rms          rms(c)
DAV:   1    -0.372465556857E+02   -0.12334E-07   -0.21115E-07 10496   0.356E-03    0.407E-04
DAV:   2    -0.372465556825E+02    0.31819E-08   -0.13887E-08  5596   0.168E-03
  40 F= -.37246556E+02 E0= -.37246513E+02  d E =-.648952E-07
 curvature:  -0.48 expect dE=-0.980E-07 dE for cont linesearch -0.688E-10
 trial: gam= 1.34930 g(F)=  0.492E-07 g(S)=  0.156E-06 ort = 0.518E-08 (trialstep = 0.257E+00)
 search vector abs. value=  0.558E-06
 reached required accuracy - stopping structural energy minimisation
 writing wavefunctions
Mon Jan  3 23:23:48 CST 2022
