Mon Jan  3 23:18:34 CST 2022
 running on   48 total cores
 distrk:  each k-point on   48 cores,    1 groups
 distr:  one band on   24 cores,    2 groups
 using from now: INCAR     
 vasp.5.3.5 31Mar14 (build Jan 11 2016 19:50:55) complex                        
  
 POSCAR found type information on POSCAR  Zn Ga N  O 
 POSCAR found :  4 types and       8 ions
 scaLAPACK will be used

 ----------------------------------------------------------------------------- 
|                                                                             |
|           W    W    AA    RRRRR   N    N  II  N    N   GGGG   !!!           |
|           W    W   A  A   R    R  NN   N  II  NN   N  G    G  !!!           |
|           W    W  A    A  R    R  N N  N  II  N N  N  G       !!!           |
|           W WW W  AAAAAA  RRRRR   N  N N  II  N  N N  G  GGG   !            |
|           WW  WW  A    A  R   R   N   NN  II  N   NN  G    G                |
|           W    W  A    A  R    R  N    N  II  N    N   GGGG   !!!           |
|                                                                             |
|      For optimal performance we recommend to set                            |
|        NCORE= 4 - approx SQRT( number of cores)                             |
|      NCORE specifies how many cores store one orbital (NPAR=cpu/NCORE).     |
|      This setting can  greatly improve the performance of VASP for DFT.     |
|      The default, NPAR=number of cores might be grossly inefficient         |
|      on modern multi-core architectures or massively parallel machines.     |
|      Do your own testing !!!!                                               |
|      Unfortunately you need to use the default for GW and RPA calculations. |
|      (for HF NCORE is supported but not extensively tested yet)             |
|                                                                             |
 ----------------------------------------------------------------------------- 

 LDA part: xc-table for Pade appr. of Perdew
 POSCAR, INCAR and KPOINTS ok, starting setup
 WARNING: small aliasing (wrap around) errors must be expected
 FFT: planning ...
 WAVECAR not read
 entering main loop
       N       E                     dE             d eps       ncg     rms          rms(c)
DAV:   1     0.888107252838E+03    0.88811E+03   -0.41781E+04 10140   0.293E+03
DAV:   2     0.151999325115E+03   -0.73611E+03   -0.70916E+03 10056   0.733E+02
DAV:   3    -0.219292823951E+02   -0.17393E+03   -0.16892E+03 11724   0.254E+02
DAV:   4    -0.390257433784E+02   -0.17096E+02   -0.16902E+02 12152   0.786E+01
DAV:   5    -0.396525391789E+02   -0.62680E+00   -0.62379E+00 12988   0.139E+01    0.152E+01
DAV:   6    -0.342739192254E+02    0.53786E+01   -0.33134E+01 18976   0.723E+01    0.735E+00
DAV:   7    -0.342147818871E+02    0.59137E-01   -0.72498E+00 12364   0.223E+01    0.459E+00
DAV:   8    -0.341611436032E+02    0.53638E-01   -0.10454E+00 12608   0.846E+00    0.260E+00
DAV:   9    -0.341589151943E+02    0.22284E-02   -0.37042E-01 13164   0.668E+00    0.963E-01
DAV:  10    -0.341461976605E+02    0.12718E-01   -0.67950E-02 14368   0.378E+00    0.449E-01
DAV:  11    -0.341478538231E+02   -0.16562E-02   -0.50892E-02 14860   0.170E+00    0.305E-01
DAV:  12    -0.341475589541E+02    0.29487E-03   -0.71738E-03 13512   0.904E-01    0.114E-01
DAV:  13    -0.341480553050E+02   -0.49635E-03   -0.25878E-03 13256   0.448E-01    0.437E-02
DAV:  14    -0.341482023063E+02   -0.14700E-03   -0.26714E-04 11256   0.214E-01    0.295E-02
DAV:  15    -0.341482591013E+02   -0.56795E-04   -0.14244E-04 13756   0.118E-01    0.141E-02
DAV:  16    -0.341482791356E+02   -0.20034E-04   -0.36682E-05 12612   0.568E-02    0.122E-02
DAV:  17    -0.341482815444E+02   -0.24088E-05   -0.13050E-05 13840   0.387E-02    0.423E-03
DAV:  18    -0.341482829307E+02   -0.13863E-05   -0.46512E-06 12200   0.165E-02    0.188E-03
DAV:  19    -0.341482831332E+02   -0.20255E-06   -0.67553E-07 12524   0.119E-02    0.901E-04
DAV:  20    -0.341482831722E+02   -0.38993E-07   -0.21734E-07 12660   0.565E-03    0.673E-04
DAV:  21    -0.341482831822E+02   -0.99644E-08   -0.29080E-08  8624   0.215E-03
   1 F= -.34148283E+02 E0= -.34135069E+02  d E =-.341483E+02
 curvature:   0.00 expect dE= 0.000E+00 dE for cont linesearch  0.000E+00
 trial: gam= 0.00000 g(F)=  0.657E-04 g(S)=  0.395E-04 ort = 0.000E+00 (trialstep = 0.100E+01)
 search vector abs. value=  0.105E-03
 bond charge predicted
       N       E                     dE             d eps       ncg     rms          rms(c)
DAV:   1    -0.341485079131E+02   -0.22474E-03   -0.20017E-02 12620   0.125E+00    0.141E-01
DAV:   2    -0.341483521279E+02    0.15579E-03   -0.30768E-03 11976   0.613E-01    0.563E-02
DAV:   3    -0.341483148141E+02    0.37314E-04   -0.33713E-04 14880   0.186E-01    0.350E-02
DAV:   4    -0.341482982064E+02    0.16608E-04   -0.89968E-05 11488   0.100E-01    0.158E-02
DAV:   5    -0.341482932086E+02    0.49978E-05   -0.14419E-05 13352   0.696E-02    0.373E-03
DAV:   6    -0.341482932265E+02   -0.17905E-07   -0.45279E-06 11120   0.291E-02    0.172E-03
DAV:   7    -0.341482932364E+02   -0.99044E-08   -0.11176E-06 13000   0.126E-02    0.129E-03
DAV:   8    -0.341482931949E+02    0.41564E-07   -0.12690E-07 12052   0.810E-03    0.707E-04
DAV:   9    -0.341482931431E+02    0.51780E-07   -0.75950E-08 12652   0.235E-03    0.306E-04
DAV:  10    -0.341482931339E+02    0.92050E-08   -0.13245E-08  6168   0.196E-03
   2 F= -.34148293E+02 E0= -.34135065E+02  d E =-.995172E-05
 trial-energy change:   -0.000010  1 .order   -0.000011   -0.000105    0.000083
 step:   0.5496(harm=  0.5599)  dis= 0.00035  next Energy=   -34.148312 (dE=-0.287E-04)
 bond charge predicted
       N       E                     dE             d eps       ncg     rms          rms(c)
DAV:   1    -0.341483560643E+02   -0.62921E-04   -0.40666E-03 12636   0.566E-01    0.635E-02
DAV:   2    -0.341483244421E+02    0.31622E-04   -0.62088E-04 11952   0.275E-01    0.254E-02
DAV:   3    -0.341483167312E+02    0.77110E-05   -0.68123E-05 14904   0.835E-02    0.158E-02
DAV:   4    -0.341483129580E+02    0.37732E-05   -0.18209E-05 11520   0.448E-02    0.712E-03
DAV:   5    -0.341483118560E+02    0.11020E-05   -0.29227E-06 13344   0.312E-02    0.170E-03
DAV:   6    -0.341483118592E+02   -0.31796E-08   -0.91973E-07 11156   0.131E-02    0.779E-04
DAV:   7    -0.341483118891E+02   -0.29913E-07   -0.22780E-07 13080   0.562E-03    0.583E-04
DAV:   8    -0.341483119049E+02   -0.15867E-07   -0.23153E-08  7448   0.363E-03    0.328E-04
DAV:   9    -0.341483119353E+02   -0.30336E-07   -0.19115E-08  7916   0.117E-03    0.174E-04
DAV:  10    -0.341483119378E+02   -0.25366E-08   -0.52264E-09  5820   0.115E-03
   3 F= -.34148312E+02 E0= -.34135090E+02  d E =-.287557E-04
 curvature:  -0.28 expect dE=-0.495E-05 dE for cont linesearch -0.150E-08
 trial: gam= 0.16107 g(F)=  0.162E-04 g(S)=  0.153E-05 ort = 0.750E-06 (trialstep = 0.910E+00)
 search vector abs. value=  0.207E-04
 bond charge predicted
       N       E                     dE             d eps       ncg     rms          rms(c)
DAV:   1    -0.341483254862E+02   -0.13551E-04   -0.32976E-03  9860   0.325E-01    0.228E-02
DAV:   2    -0.341483266592E+02   -0.11730E-05   -0.10406E-04 11496   0.981E-02    0.117E-02
DAV:   3    -0.341483253697E+02    0.12896E-05   -0.11319E-05 13304   0.347E-02    0.705E-03
DAV:   4    -0.341483248335E+02    0.53619E-06   -0.29605E-06 11984   0.202E-02    0.219E-03
DAV:   5    -0.341483248303E+02    0.31869E-08   -0.72170E-07 11704   0.112E-02    0.865E-04
DAV:   6    -0.341483248579E+02   -0.27567E-07   -0.18058E-07 11456   0.431E-03    0.560E-04
DAV:   7    -0.341483248633E+02   -0.54670E-08   -0.21578E-08  6800   0.270E-03
   4 F= -.34148325E+02 E0= -.34135103E+02  d E =-.129255E-04
 trial-energy change:   -0.000013  1 .order   -0.000013   -0.000016   -0.000009
 step:   2.0324(harm=  2.1992)  dis= 0.00046  next Energy=   -34.148331 (dE=-0.189E-04)
 bond charge predicted
       N       E                     dE             d eps       ncg     rms          rms(c)
DAV:   1    -0.341483326557E+02   -0.77979E-05   -0.50191E-03  9860   0.401E-01    0.281E-02
DAV:   2    -0.341483344616E+02   -0.18059E-05   -0.15827E-04 11488   0.121E-01    0.144E-02
DAV:   3    -0.341483324696E+02    0.19920E-05   -0.17288E-05 13308   0.425E-02    0.870E-03
DAV:   4    -0.341483316110E+02    0.85866E-06   -0.44951E-06 11968   0.246E-02    0.271E-03
DAV:   5    -0.341483316017E+02    0.92714E-08   -0.11021E-06 11784   0.133E-02    0.107E-03
DAV:   6    -0.341483316393E+02   -0.37556E-07   -0.27437E-07 11664   0.533E-03    0.692E-04
DAV:   7    -0.341483316469E+02   -0.75861E-08   -0.34414E-08  8224   0.345E-03
   5 F= -.34148332E+02 E0= -.34135110E+02  d E =-.197090E-04
 curvature:  -1.25 expect dE=-0.335E-04 dE for cont linesearch -0.127E-06
 trial: gam= 1.44503 g(F)=  0.218E-04 g(S)=  0.496E-05 ort = 0.145E-05 (trialstep = 0.316E+00)
 search vector abs. value=  0.741E-04
 bond charge predicted
       N       E                     dE             d eps       ncg     rms          rms(c)
DAV:   1    -0.341483417420E+02   -0.10103E-04   -0.13644E-03  9856   0.216E-01    0.182E-02
DAV:   2    -0.341483409248E+02    0.81721E-06   -0.59920E-05 12104   0.824E-02    0.932E-03
DAV:   3    -0.341483400482E+02    0.87659E-06   -0.61213E-06 12180   0.304E-02    0.533E-03
DAV:   4    -0.341483397129E+02    0.33531E-06   -0.18781E-06 11920   0.204E-02    0.171E-03
DAV:   5    -0.341483397006E+02    0.12317E-07   -0.49089E-07 10868   0.101E-02    0.561E-04
DAV:   6    -0.341483397130E+02   -0.12410E-07   -0.13560E-07 10940   0.373E-03    0.408E-04
DAV:   7    -0.341483397111E+02    0.18281E-08   -0.20250E-08  7784   0.340E-03
   6 F= -.34148340E+02 E0= -.34135123E+02  d E =-.806428E-05
 trial-energy change:   -0.000008  1 .order   -0.000008   -0.000009   -0.000007
 step:   0.8800(harm=  1.2537)  dis= 0.00047  next Energy=   -34.148346 (dE=-0.147E-04)
 bond charge predicted
       N       E                     dE             d eps       ncg     rms          rms(c)
DAV:   1    -0.341483537417E+02   -0.14029E-04   -0.43314E-03  9856   0.384E-01    0.325E-02
DAV:   2    -0.341483512515E+02    0.24902E-05   -0.19039E-04 12104   0.147E-01    0.166E-02
DAV:   3    -0.341483484029E+02    0.28486E-05   -0.19373E-05 12136   0.548E-02    0.949E-03
DAV:   4    -0.341483471802E+02    0.12227E-05   -0.59801E-06 11936   0.368E-02    0.303E-03
DAV:   5    -0.341483471368E+02    0.43332E-07   -0.15744E-06 10848   0.182E-02    0.994E-04
DAV:   6    -0.341483471743E+02   -0.37501E-07   -0.43873E-07 11472   0.679E-03    0.726E-04
DAV:   7    -0.341483471718E+02    0.25157E-08   -0.69419E-08  9248   0.614E-03
   7 F= -.34148347E+02 E0= -.34135139E+02  d E =-.155250E-04
 curvature:  -1.35 expect dE=-0.117E-04 dE for cont linesearch -0.147E-05
 ZBRENT: increasing intervall
 opt :   2.0073  next Energy=   -34.148343 (dE=-0.114E-04)
 bond charge predicted
       N       E                     dE             d eps       ncg     rms          rms(c)
DAV:   1    -0.341483711554E+02   -0.23981E-04   -0.17321E-02  9856   0.768E-01    0.650E-02
DAV:   2    -0.341483613172E+02    0.98382E-05   -0.76172E-04 12120   0.295E-01    0.332E-02
DAV:   3    -0.341483497353E+02    0.11582E-04   -0.77463E-05 12128   0.110E-01    0.190E-02
DAV:   4    -0.341483444389E+02    0.52963E-05   -0.23908E-05 11936   0.735E-02    0.606E-03
DAV:   5    -0.341483442489E+02    0.19008E-06   -0.62907E-06 10840   0.364E-02    0.199E-03
DAV:   6    -0.341483443916E+02   -0.14279E-06   -0.17535E-06 11480   0.136E-02    0.145E-03
DAV:   7    -0.341483443913E+02    0.32469E-09   -0.29608E-07 13736   0.123E-02    0.620E-04
DAV:   8    -0.341483443906E+02    0.67848E-09   -0.87151E-08 10876   0.504E-03
   8 F= -.34148344E+02 E0= -.34135153E+02  d E =-.127438E-04
 curvature:   3.76 expect dE= 0.199E-03 dE for cont linesearch  0.123E-04
 ZBRENT: bracketing found
 ZBRENT: interpolating
 opt :   1.2923  next Energy=   -34.148349 (dE=-0.174E-04)
 bond charge predicted
       N       E                     dE             d eps       ncg     rms          rms(c)
DAV:   1    -0.341483608065E+02   -0.16415E-04   -0.69665E-03  9856   0.488E-01    0.412E-02
DAV:   2    -0.341483571201E+02    0.36864E-05   -0.30682E-04 12104   0.188E-01    0.211E-02
DAV:   3    -0.341483522797E+02    0.48405E-05   -0.31010E-05 12136   0.708E-02    0.121E-02
DAV:   4    -0.341483497226E+02    0.25571E-05   -0.96423E-06 11944   0.468E-02    0.382E-03
DAV:   5    -0.341483496280E+02    0.94643E-07   -0.25691E-06 10824   0.234E-02    0.125E-03
DAV:   6    -0.341483496778E+02   -0.49848E-07   -0.71623E-07 11548   0.891E-03    0.909E-04
DAV:   7    -0.341483496851E+02   -0.73251E-08   -0.12036E-07 11204   0.777E-03    0.396E-04
DAV:   8    -0.341483496919E+02   -0.67375E-08   -0.30770E-08  8024   0.321E-03
   9 F= -.34148350E+02 E0= -.34135148E+02  d E =-.180450E-04
 curvature:  -0.57 expect dE=-0.885E-05 dE for cont linesearch -0.414E-08
 trial: gam= 0.71155 g(F)=  0.104E-04 g(S)=  0.526E-05 ort = 0.736E-06 (trialstep = 0.512E+00)
 search vector abs. value=  0.542E-04
 bond charge predicted
       N       E                     dE             d eps       ncg     rms          rms(c)
DAV:   1    -0.341483598478E+02   -0.10163E-04   -0.25356E-03  9856   0.277E-01    0.217E-02
DAV:   2    -0.341483596336E+02    0.21412E-06   -0.73492E-05 11488   0.943E-02    0.133E-02
DAV:   3    -0.341483573888E+02    0.22448E-05   -0.11919E-05 12720   0.479E-02    0.722E-03
DAV:   4    -0.341483565109E+02    0.87787E-06   -0.35189E-06 11636   0.200E-02    0.147E-03
DAV:   5    -0.341483565740E+02   -0.63081E-07   -0.86682E-07 11580   0.873E-03    0.904E-04
DAV:   6    -0.341483565910E+02   -0.16958E-07   -0.15968E-07 11184   0.599E-03    0.613E-04
DAV:   7    -0.341483565936E+02   -0.25966E-08   -0.22395E-08  6760   0.460E-03
  10 F= -.34148357E+02 E0= -.34135154E+02  d E =-.690169E-05
 trial-energy change:   -0.000007  1 .order   -0.000007   -0.000008   -0.000006
 step:   1.7061(harm=  1.7061)  dis= 0.00096  next Energy=   -34.148363 (dE=-0.138E-04)
 bond charge predicted
       N       E                     dE             d eps       ncg     rms          rms(c)
DAV:   1    -0.341483809659E+02   -0.24375E-04   -0.13826E-02  9856   0.647E-01    0.506E-02
DAV:   2    -0.341483799275E+02    0.10384E-05   -0.40237E-04 11488   0.221E-01    0.311E-02
DAV:   3    -0.341483681463E+02    0.11781E-04   -0.65273E-05 12712   0.112E-01    0.169E-02
DAV:   4    -0.341483633478E+02    0.47985E-05   -0.19338E-05 11660   0.467E-02    0.346E-03
DAV:   5    -0.341483636836E+02   -0.33577E-06   -0.47517E-06 11608   0.205E-02    0.212E-03
DAV:   6    -0.341483637517E+02   -0.68148E-07   -0.87849E-07 11932   0.140E-02    0.143E-03
DAV:   7    -0.341483637603E+02   -0.85847E-08   -0.15674E-07 13872   0.107E-02    0.429E-04
DAV:   8    -0.341483637674E+02   -0.70750E-08   -0.53190E-08 10276   0.277E-03
  11 F= -.34148364E+02 E0= -.34135162E+02  d E =-.140755E-04
 curvature:  -2.86 expect dE=-0.356E-04 dE for cont linesearch -0.478E-07
 trial: gam= 0.69306 g(F)=  0.995E-05 g(S)=  0.249E-05 ort = 0.951E-06 (trialstep = 0.750E+00)
 search vector abs. value=  0.398E-04
 bond charge predicted
       N       E                     dE             d eps       ncg     rms          rms(c)
DAV:   1    -0.341483804273E+02   -0.16667E-04   -0.38450E-03  9932   0.363E-01    0.331E-02
DAV:   2    -0.341483754618E+02    0.49655E-05   -0.18142E-04 12128   0.160E-01    0.184E-02
DAV:   3    -0.341483716278E+02    0.38340E-05   -0.28070E-05 11788   0.757E-02    0.105E-02
DAV:   4    -0.341483698259E+02    0.18019E-05   -0.71430E-06 13532   0.432E-02    0.276E-03
DAV:   5    -0.341483699123E+02   -0.86354E-07   -0.23634E-06 10604   0.131E-02    0.118E-03
DAV:   6    -0.341483699280E+02   -0.15779E-07   -0.28291E-07 11900   0.506E-03    0.732E-04
DAV:   7    -0.341483699290E+02   -0.10150E-08   -0.38959E-08  9832   0.483E-03
  12 F= -.34148370E+02 E0= -.34135180E+02  d E =-.616168E-05
 trial-energy change:   -0.000006  1 .order   -0.000008   -0.000010   -0.000005
 step:   1.7027(harm=  1.7027)  dis= 0.00087  next Energy=   -34.148375 (dE=-0.112E-04)
 bond charge predicted
       N       E                     dE             d eps       ncg     rms          rms(c)
DAV:   1    -0.341483908090E+02   -0.20881E-04   -0.61956E-03  9932   0.460E-01    0.420E-02
DAV:   2    -0.341483827382E+02    0.80708E-05   -0.29246E-04 12120   0.202E-01    0.233E-02
DAV:   3    -0.341483765815E+02    0.61567E-05   -0.45148E-05 11780   0.944E-02    0.133E-02
DAV:   4    -0.341483736201E+02    0.29614E-05   -0.11427E-05 13492   0.547E-02    0.352E-03
DAV:   5    -0.341483737511E+02   -0.13097E-06   -0.37885E-06 10624   0.166E-02    0.150E-03
DAV:   6    -0.341483737736E+02   -0.22532E-07   -0.45085E-07 11888   0.624E-03    0.930E-04
DAV:   7    -0.341483737749E+02   -0.12715E-08   -0.63897E-08 11444   0.609E-03
  13 F= -.34148374E+02 E0= -.34135198E+02  d E =-.100075E-04
 curvature:  -2.59 expect dE=-0.209E-04 dE for cont linesearch -0.166E-07
 trial: gam= 0.68378 g(F)=  0.754E-05 g(S)=  0.529E-06 ort = 0.505E-06 (trialstep = 0.941E+00)
 search vector abs. value=  0.274E-04
 bond charge predicted
       N       E                     dE             d eps       ncg     rms          rms(c)
DAV:   1    -0.341483856213E+02   -0.11848E-04   -0.43984E-03  9948   0.379E-01    0.302E-02
DAV:   2    -0.341483844747E+02    0.11466E-05   -0.16212E-04 11408   0.147E-01    0.181E-02
DAV:   3    -0.341483807912E+02    0.36835E-05   -0.23780E-05 12836   0.704E-02    0.974E-03
DAV:   4    -0.341483792237E+02    0.15675E-05   -0.61515E-06 11740   0.296E-02    0.226E-03
DAV:   5    -0.341483793417E+02   -0.11795E-06   -0.18335E-06 10720   0.101E-02    0.113E-03
DAV:   6    -0.341483793620E+02   -0.20276E-07   -0.18366E-07 11896   0.362E-03    0.686E-04
DAV:   7    -0.341483793658E+02   -0.38453E-08   -0.23699E-08  7892   0.357E-03
  14 F= -.34148379E+02 E0= -.34135215E+02  d E =-.559092E-05
 trial-energy change:   -0.000006  1 .order   -0.000005   -0.000008   -0.000003
 step:   1.4232(harm=  1.5263)  dis= 0.00050  next Energy=   -34.148380 (dE=-0.638E-05)
 bond charge predicted
       N       E                     dE             d eps       ncg     rms          rms(c)
DAV:   1    -0.341483819417E+02   -0.25798E-05   -0.11557E-03  9948   0.194E-01    0.155E-02
DAV:   2    -0.341483816515E+02    0.29023E-06   -0.42770E-05 11456   0.758E-02    0.930E-03
DAV:   3    -0.341483806547E+02    0.99677E-06   -0.62218E-06 12764   0.367E-02    0.499E-03
DAV:   4    -0.341483802732E+02    0.38153E-06   -0.16502E-06 11744   0.153E-02    0.116E-03
DAV:   5    -0.341483803102E+02   -0.37037E-07   -0.48377E-07 10712   0.531E-03    0.583E-04
DAV:   6    -0.341483803203E+02   -0.10030E-07   -0.51126E-08 10468   0.221E-03    0.354E-04
DAV:   7    -0.341483803226E+02   -0.23092E-08   -0.68969E-09  6068   0.225E-03
  15 F= -.34148380E+02 E0= -.34135222E+02  d E =-.654769E-05
 curvature:  -2.40 expect dE=-0.100E-04 dE for cont linesearch -0.309E-07
 trial: gam= 0.51679 g(F)=  0.312E-05 g(S)=  0.106E-05 ort = 0.593E-06 (trialstep = 0.104E+01)
 search vector abs. value=  0.121E-04
 bond charge predicted
       N       E                     dE             d eps       ncg     rms          rms(c)
DAV:   1    -0.341483890732E+02   -0.87530E-05   -0.23983E-03  9928   0.315E-01    0.299E-02
DAV:   2    -0.341483859138E+02    0.31594E-05   -0.15589E-04 11072   0.135E-01    0.136E-02
DAV:   3    -0.341483840667E+02    0.18471E-05   -0.15298E-05 13184   0.402E-02    0.771E-03
DAV:   4    -0.341483832500E+02    0.81668E-06   -0.37232E-06 12192   0.241E-02    0.304E-03
DAV:   5    -0.341483831600E+02    0.90039E-07   -0.10707E-06 11704   0.142E-02    0.876E-04
DAV:   6    -0.341483831792E+02   -0.19188E-07   -0.25790E-07 11856   0.613E-03    0.525E-04
DAV:   7    -0.341483831813E+02   -0.21137E-08   -0.30850E-08  7928   0.292E-03
  16 F= -.34148383E+02 E0= -.34135233E+02  d E =-.285873E-05
 trial-energy change:   -0.000003  1 .order   -0.000003   -0.000005   -0.000001
 step:   1.3358(harm=  1.3358)  dis= 0.00032  next Energy=   -34.148383 (dE=-0.299E-05)
 bond charge predicted
       N       E                     dE             d eps       ncg     rms          rms(c)
DAV:   1    -0.341483838211E+02   -0.64193E-06   -0.19884E-04  9928   0.906E-02    0.861E-03
DAV:   2    -0.341483835150E+02    0.30616E-06   -0.12826E-05 11128   0.386E-02    0.392E-03
DAV:   3    -0.341483833747E+02    0.14028E-06   -0.12644E-06 13208   0.115E-02    0.222E-03
DAV:   4    -0.341483833411E+02    0.33576E-07   -0.31861E-07 12148   0.628E-03    0.875E-04
DAV:   5    -0.341483833367E+02    0.43992E-08   -0.84642E-08 10724   0.358E-03
  17 F= -.34148383E+02 E0= -.34135235E+02  d E =-.301414E-05
 curvature:  -1.80 expect dE=-0.654E-05 dE for cont linesearch -0.199E-11
 trial: gam= 0.94537 g(F)=  0.245E-05 g(S)=  0.118E-05 ort =-0.366E-08 (trialstep = 0.919E+00)
 search vector abs. value=  0.144E-04
 bond charge predicted
       N       E                     dE             d eps       ncg     rms          rms(c)
DAV:   1    -0.341483859900E+02   -0.26489E-05   -0.23339E-03  9984   0.275E-01    0.198E-02
DAV:   2    -0.341483877143E+02   -0.17243E-05   -0.74732E-05 11664   0.772E-02    0.115E-02
DAV:   3    -0.341483856634E+02    0.20509E-05   -0.68089E-06 12988   0.428E-02    0.471E-03
DAV:   4    -0.341483853974E+02    0.26600E-06   -0.29393E-06 11972   0.272E-02    0.135E-03
DAV:   5    -0.341483855043E+02   -0.10693E-06   -0.11152E-06 11520   0.929E-03    0.851E-04
DAV:   6    -0.341483855141E+02   -0.97316E-08   -0.14917E-07 11676   0.660E-03    0.498E-04
DAV:   7    -0.341483855238E+02   -0.97471E-08   -0.30961E-08  7308   0.294E-03
  18 F= -.34148386E+02 E0= -.34135246E+02  d E =-.218711E-05
 trial-energy change:   -0.000002  1 .order   -0.000002   -0.000003   -0.000001
 step:   1.3262(harm=  1.3262)  dis= 0.00035  next Energy=   -34.148386 (dE=-0.241E-05)
 bond charge predicted
       N       E                     dE             d eps       ncg     rms          rms(c)
DAV:   1    -0.341483859429E+02   -0.42883E-06   -0.45817E-04  9980   0.122E-01    0.873E-03
DAV:   2    -0.341483862399E+02   -0.29703E-06   -0.14693E-05 11664   0.336E-02    0.510E-03
DAV:   3    -0.341483858356E+02    0.40436E-06   -0.12982E-06 12904   0.177E-02    0.206E-03
DAV:   4    -0.341483857863E+02    0.49262E-07   -0.57637E-07 11992   0.118E-02    0.607E-04
DAV:   5    -0.341483858130E+02   -0.26743E-07   -0.20469E-07 11104   0.425E-03    0.378E-04
DAV:   6    -0.341483858164E+02   -0.33251E-08   -0.33272E-08  7572   0.315E-03
  19 F= -.34148386E+02 E0= -.34135251E+02  d E =-.247966E-05
 curvature:  -2.64 expect dE=-0.529E-05 dE for cont linesearch -0.188E-08
 trial: gam= 0.42384 g(F)=  0.177E-05 g(S)=  0.232E-06 ort = 0.101E-06 (trialstep = 0.100E+01)
 search vector abs. value=  0.468E-05
 bond charge predicted
       N       E                     dE             d eps       ncg     rms          rms(c)
DAV:   1    -0.341483877845E+02   -0.19715E-05   -0.88770E-04  9868   0.176E-01    0.146E-02
DAV:   2    -0.341483875061E+02    0.27845E-06   -0.36432E-05 11704   0.663E-02    0.768E-03
DAV:   3    -0.341483869159E+02    0.59021E-06   -0.36110E-06 12116   0.251E-02    0.395E-03
DAV:   4    -0.341483866939E+02    0.22201E-06   -0.97733E-07 12548   0.186E-02    0.839E-04
DAV:   5    -0.341483867173E+02   -0.23451E-07   -0.32033E-07 10752   0.879E-03    0.462E-04
DAV:   6    -0.341483867271E+02   -0.97780E-08   -0.89498E-08  9720   0.409E-03
  20 F= -.34148387E+02 E0= -.34135261E+02  d E =-.910732E-06
 trial-energy change:   -0.000001  1 .order   -0.000001   -0.000002    0.000000
 step:   0.8757(harm=  0.8611)  dis= 0.00013  next Energy=   -34.148387 (dE=-0.931E-06)
 bond charge predicted
       N       E                     dE             d eps       ncg     rms          rms(c)
DAV:   1    -0.341483867559E+02   -0.38543E-07   -0.13690E-05  9884   0.221E-02    0.178E-03
DAV:   2    -0.341483867679E+02   -0.11981E-07   -0.55797E-07 11680   0.804E-03    0.950E-04
DAV:   3    -0.341483867486E+02    0.19283E-07   -0.49706E-08 10628   0.300E-03    0.486E-04
DAV:   4    -0.341483867416E+02    0.69476E-08   -0.13049E-08  5400   0.161E-03
  21 F= -.34148387E+02 E0= -.34135259E+02  d E =-.925247E-06
 curvature:  -0.97 expect dE=-0.833E-06 dE for cont linesearch -0.522E-08
 trial: gam= 0.43719 g(F)=  0.718E-06 g(S)=  0.138E-06 ort = 0.158E-06 (trialstep = 0.976E+00)
 search vector abs. value=  0.189E-05
 bond charge predicted
       N       E                     dE             d eps       ncg     rms          rms(c)
DAV:   1    -0.341483888107E+02   -0.20622E-05   -0.36495E-04  9948   0.132E-01    0.133E-02
DAV:   2    -0.341483876486E+02    0.11622E-05   -0.28706E-05 11032   0.653E-02    0.539E-03
DAV:   3    -0.341483874602E+02    0.18838E-06   -0.24807E-06 13896   0.164E-02    0.291E-03
DAV:   4    -0.341483873793E+02    0.80882E-07   -0.48221E-07 13060   0.894E-03    0.100E-03
DAV:   5    -0.341483873842E+02   -0.48385E-08   -0.15653E-07 10928   0.493E-03    0.382E-04
DAV:   6    -0.341483873941E+02   -0.99872E-08   -0.35594E-08  8576   0.189E-03
  22 F= -.34148387E+02 E0= -.34135267E+02  d E =-.652525E-06
 trial-energy change:   -0.000001  1 .order   -0.000001   -0.000001   -0.000000
 step:   2.0399(harm=  2.0399)  dis= 0.00029  next Energy=   -34.148388 (dE=-0.943E-06)
 bond charge predicted
       N       E                     dE             d eps       ncg     rms          rms(c)
DAV:   1    -0.341483893991E+02   -0.20149E-05   -0.43403E-04  9956   0.144E-01    0.145E-02
DAV:   2    -0.341483880348E+02    0.13643E-05   -0.34049E-05 11072   0.712E-02    0.588E-03
DAV:   3    -0.341483878018E+02    0.23295E-06   -0.29591E-06 13792   0.181E-02    0.318E-03
DAV:   4    -0.341483876984E+02    0.10342E-06   -0.57889E-07 13052   0.100E-02    0.109E-03
DAV:   5    -0.341483877019E+02   -0.35216E-08   -0.18829E-07 11100   0.548E-03    0.414E-04
DAV:   6    -0.341483877133E+02   -0.11388E-07   -0.44114E-08  9764   0.208E-03    0.235E-04
DAV:   7    -0.341483877150E+02   -0.16689E-08   -0.48364E-09  5664   0.112E-03
  23 F= -.34148388E+02 E0= -.34135275E+02  d E =-.973358E-06
 curvature:  -2.08 expect dE=-0.193E-05 dE for cont linesearch -0.559E-08
 trial: gam= 0.93430 g(F)=  0.598E-06 g(S)=  0.327E-06 ort = 0.712E-07 (trialstep = 0.829E+00)
 search vector abs. value=  0.271E-05
 bond charge predicted
       N       E                     dE             d eps       ncg     rms          rms(c)
DAV:   1    -0.341483874946E+02    0.21870E-06   -0.40150E-04  9892   0.116E-01    0.624E-03
DAV:   2    -0.341483883512E+02   -0.85662E-06   -0.15138E-05 11456   0.294E-02    0.370E-03
DAV:   3    -0.341483882266E+02    0.12468E-06   -0.10803E-06 12672   0.110E-02    0.220E-03
DAV:   4    -0.341483881299E+02    0.96621E-07   -0.33987E-07 11396   0.801E-03    0.698E-04
DAV:   5    -0.341483881478E+02   -0.17899E-07   -0.91145E-08 11084   0.454E-03    0.280E-04
DAV:   6    -0.341483881552E+02   -0.73987E-08   -0.23311E-08  7476   0.214E-03
  24 F= -.34148388E+02 E0= -.34135281E+02  d E =-.440253E-06
 trial-energy change:   -0.000000  1 .order   -0.000000   -0.000001   -0.000000
 step:   0.9320(harm=  0.9320)  dis= 0.00015  next Energy=   -34.148388 (dE=-0.462E-06)
 bond charge predicted
       N       E                     dE             d eps       ncg     rms          rms(c)
DAV:   1    -0.341483881624E+02   -0.14591E-07   -0.62181E-06  9968   0.147E-02    0.799E-04
DAV:   2    -0.341483881714E+02   -0.89321E-08   -0.25128E-07 11516   0.459E-03    0.470E-04
DAV:   3    -0.341483881713E+02    0.99135E-10   -0.22942E-08  7236   0.245E-03
  25 F= -.34148388E+02 E0= -.34135282E+02  d E =-.456278E-06
 curvature:  -1.27 expect dE=-0.873E-06 dE for cont linesearch -0.394E-08
 trial: gam= 0.83830 g(F)=  0.515E-06 g(S)=  0.171E-06 ort = 0.915E-07 (trialstep = 0.839E+00)
 search vector abs. value=  0.274E-05
 bond charge predicted
       N       E                     dE             d eps       ncg     rms          rms(c)
DAV:   1    -0.341483889577E+02   -0.78633E-06   -0.39389E-04 10048   0.120E-01    0.943E-03
DAV:   2    -0.341483887338E+02    0.22388E-06   -0.16900E-05 11512   0.444E-02    0.466E-03
DAV:   3    -0.341483885910E+02    0.14284E-06   -0.16178E-06 12376   0.133E-02    0.249E-03
DAV:   4    -0.341483885197E+02    0.71252E-07   -0.34258E-07 12444   0.921E-03    0.774E-04
DAV:   5    -0.341483885302E+02   -0.10500E-07   -0.10232E-07 10880   0.496E-03    0.269E-04
DAV:   6    -0.341483885358E+02   -0.55579E-08   -0.27666E-08  7740   0.225E-03
  26 F= -.34148389E+02 E0= -.34135288E+02  d E =-.364504E-06
 trial-energy change:   -0.000000  1 .order   -0.000000   -0.000001   -0.000000
 step:   1.1901(harm=  1.1901)  dis= 0.00013  next Energy=   -34.148389 (dE=-0.454E-06)
 bond charge predicted
       N       E                     dE             d eps       ncg     rms          rms(c)
DAV:   1    -0.341483886521E+02   -0.12192E-06   -0.69201E-05 10052   0.506E-02    0.395E-03
DAV:   2    -0.341483885939E+02    0.58265E-07   -0.29769E-06 11488   0.190E-02    0.195E-03
DAV:   3    -0.341483885803E+02    0.13512E-07   -0.28882E-07 12444   0.680E-03    0.105E-03
DAV:   4    -0.341483885752E+02    0.51068E-08   -0.67477E-08 10712   0.462E-03
  27 F= -.34148389E+02 E0= -.34135291E+02  d E =-.403979E-06
 curvature:  -2.14 expect dE=-0.936E-06 dE for cont linesearch -0.688E-09
 trial: gam= 0.53863 g(F)=  0.342E-06 g(S)=  0.958E-07 ort = 0.297E-07 (trialstep = 0.909E+00)
 search vector abs. value=  0.127E-05
 bond charge predicted
       N       E                     dE             d eps       ncg     rms          rms(c)
DAV:   1    -0.341483891959E+02   -0.61560E-06   -0.20463E-04 10068   0.810E-02    0.618E-03
DAV:   2    -0.341483890379E+02    0.15803E-06   -0.53894E-06 12168   0.247E-02    0.347E-03
DAV:   3    -0.341483888997E+02    0.13824E-06   -0.59134E-07 11600   0.980E-03    0.168E-03
DAV:   4    -0.341483888519E+02    0.47807E-07   -0.18923E-07 12744   0.706E-03    0.328E-04
DAV:   5    -0.341483888607E+02   -0.88530E-08   -0.68879E-08 10624   0.295E-03
  28 F= -.34148389E+02 E0= -.34135295E+02  d E =-.285482E-06
 trial-energy change:   -0.000000  1 .order   -0.000000   -0.000000   -0.000000
 step:   1.8429(harm=  1.8429)  dis= 0.00016  next Energy=   -34.148389 (dE=-0.418E-06)
 bond charge predicted
       N       E                     dE             d eps       ncg     rms          rms(c)
DAV:   1    -0.341483893123E+02   -0.46041E-06   -0.21607E-04 10076   0.832E-02    0.635E-03
DAV:   2    -0.341483891566E+02    0.15571E-06   -0.58034E-06 12176   0.254E-02    0.357E-03
DAV:   3    -0.341483890143E+02    0.14226E-06   -0.65780E-07 12260   0.763E-03    0.173E-03
DAV:   4    -0.341483889614E+02    0.52938E-07   -0.15877E-07 12608   0.509E-03    0.341E-04
DAV:   5    -0.341483889692E+02   -0.78317E-08   -0.56253E-08 10448   0.254E-03
  29 F= -.34148389E+02 E0= -.34135299E+02  d E =-.393960E-06
 curvature:  -2.57 expect dE=-0.120E-05 dE for cont linesearch -0.915E-08
 trial: gam= 1.10926 g(F)=  0.379E-06 g(S)=  0.894E-07 ort = 0.671E-07 (trialstep = 0.638E+00)
 search vector abs. value=  0.217E-05
 bond charge predicted
       N       E                     dE             d eps       ncg     rms          rms(c)
DAV:   1    -0.341483891003E+02   -0.13896E-06   -0.19415E-04  9988   0.814E-02    0.542E-03
DAV:   2    -0.341483892256E+02   -0.12530E-06   -0.74097E-06 11896   0.272E-02    0.268E-03
DAV:   3    -0.341483892152E+02    0.10444E-07   -0.72407E-07 12408   0.811E-03    0.153E-03
DAV:   4    -0.341483892000E+02    0.15213E-07   -0.10206E-07 11288   0.421E-03    0.550E-04
DAV:   5    -0.341483892138E+02   -0.13801E-07   -0.29103E-08  8484   0.238E-03    0.140E-04
DAV:   6    -0.341483892157E+02   -0.19572E-08   -0.86683E-09  6064   0.165E-03
  30 F= -.34148389E+02 E0= -.34135303E+02  d E =-.246525E-06
 trial-energy change:   -0.000000  1 .order   -0.000000   -0.000000   -0.000000
 step:   1.1647(harm=  1.1647)  dis= 0.00012  next Energy=   -34.148389 (dE=-0.316E-06)
 bond charge predicted
       N       E                     dE             d eps       ncg     rms          rms(c)
DAV:   1    -0.341483892123E+02    0.14634E-08   -0.13256E-04  9984   0.673E-02    0.447E-03
DAV:   2    -0.341483892936E+02   -0.81252E-07   -0.50718E-06 11864   0.224E-02    0.220E-03
DAV:   3    -0.341483892911E+02    0.24656E-08   -0.49356E-07 12416   0.662E-03    0.126E-03
DAV:   4    -0.341483892835E+02    0.76006E-08   -0.68983E-08 10868   0.342E-03
  31 F= -.34148389E+02 E0= -.34135307E+02  d E =-.314290E-06
 curvature:  -2.33 expect dE=-0.112E-05 dE for cont linesearch -0.183E-09
 trial: gam= 1.21148 g(F)=  0.216E-06 g(S)=  0.266E-06 ort =-0.131E-07 (trialstep = 0.444E+00)
 search vector abs. value=  0.364E-05
 bond charge predicted
       N       E                     dE             d eps       ncg     rms          rms(c)
DAV:   1    -0.341483893904E+02   -0.99307E-07   -0.14796E-04  9924   0.696E-02    0.435E-03
DAV:   2    -0.341483895108E+02   -0.12041E-06   -0.44906E-06 10932   0.189E-02    0.248E-03
DAV:   3    -0.341483894455E+02    0.65271E-07   -0.52612E-07 12760   0.578E-03    0.146E-03
DAV:   4    -0.341483893863E+02    0.59219E-07   -0.86777E-08 11252   0.300E-03    0.424E-04
DAV:   5    -0.341483893858E+02    0.47203E-09   -0.22134E-08  6216   0.211E-03
  32 F= -.34148389E+02 E0= -.34135309E+02  d E =-.102355E-06
 trial-energy change:   -0.000000  1 .order   -0.000000   -0.000000   -0.000000
 step:   0.6485(harm=  0.6485)  dis= 0.00008  next Energy=   -34.148389 (dE=-0.151E-06)
 bond charge predicted
       N       E                     dE             d eps       ncg     rms          rms(c)
DAV:   1    -0.341483882105E+02    0.11758E-05   -0.31483E-05  9936   0.322E-02    0.200E-03
DAV:   2    -0.341483882352E+02   -0.24677E-07   -0.94846E-07 11244   0.855E-03    0.114E-03
DAV:   3    -0.341483882169E+02    0.18299E-07   -0.10048E-07 12028   0.295E-03    0.674E-04
DAV:   4    -0.341483881977E+02    0.19108E-07   -0.19673E-08  6492   0.211E-03    0.206E-04
DAV:   5    -0.341483881982E+02   -0.43929E-09   -0.72357E-09  5512   0.160E-03
  33 F= -.34148388E+02 E0= -.34135308E+02  d E =0.108530E-05
 curvature:  -2.54 expect dE=-0.906E-06 dE for cont linesearch -0.269E-08
 trial: gam= 0.48084 g(F)=  0.250E-06 g(S)=  0.107E-06 ort = 0.622E-07 (trialstep = 0.485E+00)
 search vector abs. value=  0.126E-05
 bond charge predicted
       N       E                     dE             d eps       ncg     rms          rms(c)
DAV:   1    -0.341483883792E+02   -0.18149E-06   -0.55886E-05  9952   0.453E-02    0.369E-03
DAV:   2    -0.341483883527E+02    0.26507E-07   -0.23599E-06 12364   0.159E-02    0.191E-03
DAV:   3    -0.341483883195E+02    0.33224E-07   -0.23159E-07 12956   0.506E-03    0.103E-03
DAV:   4    -0.341483883085E+02    0.10998E-07   -0.57999E-08 10616   0.309E-03    0.305E-04
DAV:   5    -0.341483883031E+02    0.53697E-08   -0.16536E-08  6200   0.172E-03
  34 F= -.34148388E+02 E0= -.34135308E+02  d E =-.104949E-06
 trial-energy change:   -0.000000  1 .order   -0.000000   -0.000000   -0.000000
 step:   0.8070(harm=  0.8070)  dis= 0.00005  next Energy=   -34.148388 (dE=-0.156E-06)
 bond charge predicted
       N       E                     dE             d eps       ncg     rms          rms(c)
DAV:   1    -0.341483883488E+02   -0.40302E-07   -0.24665E-05 10048   0.302E-02    0.246E-03
DAV:   2    -0.341483883314E+02    0.17411E-07   -0.10395E-06 12396   0.105E-02    0.126E-03
DAV:   3    -0.341483883169E+02    0.14468E-07   -0.99411E-08 11168   0.344E-03    0.686E-04
DAV:   4    -0.341483883123E+02    0.45820E-08   -0.26695E-08  6380   0.275E-03
  35 F= -.34148388E+02 E0= -.34135308E+02  d E =-.114160E-06
 curvature:  -1.31 expect dE=-0.153E-06 dE for cont linesearch -0.178E-08
 trial: gam= 0.35532 g(F)=  0.789E-07 g(S)=  0.379E-07 ort = 0.413E-07 (trialstep = 0.549E+00)
 search vector abs. value=  0.305E-06
 bond charge predicted
       N       E                     dE             d eps       ncg     rms          rms(c)
DAV:   1    -0.341483884783E+02   -0.16136E-06   -0.14694E-05 10088   0.263E-02    0.318E-03
DAV:   2    -0.341483883645E+02    0.11383E-06   -0.11927E-06 10864   0.137E-02    0.151E-03
DAV:   3    -0.341483883489E+02    0.15559E-07   -0.13057E-07 13076   0.485E-03    0.831E-04
DAV:   4    -0.341483883546E+02   -0.56925E-08   -0.34033E-08  8200   0.301E-03
  36 F= -.34148388E+02 E0= -.34135308E+02  d E =-.422451E-07
 trial-energy change:   -0.000000  1 .order   -0.000000   -0.000000   -0.000000
 step:   1.5080(harm=  1.5080)  dis= 0.00006  next Energy=   -34.148388 (dE=-0.992E-07)
 bond charge predicted
       N       E                     dE             d eps       ncg     rms          rms(c)
DAV:   1    -0.341483874628E+02    0.88606E-06   -0.44841E-05 10080   0.460E-02    0.557E-03
DAV:   2    -0.341483871349E+02    0.32791E-06   -0.36728E-06 10852   0.240E-02    0.265E-03
DAV:   3    -0.341483870736E+02    0.61291E-07   -0.40759E-07 14632   0.818E-03    0.146E-03
DAV:   4    -0.341483870689E+02    0.47576E-08   -0.10115E-07 11568   0.489E-03    0.476E-04
DAV:   5    -0.341483870697E+02   -0.83764E-09   -0.34522E-08  8004   0.225E-03
  37 F= -.34148387E+02 E0= -.34135307E+02  d E =0.124262E-05
 curvature:  -1.75 expect dE=-0.212E-06 dE for cont linesearch -0.102E-08
 trial: gam= 1.02930 g(F)=  0.464E-07 g(S)=  0.751E-07 ort =-0.133E-07 (trialstep = 0.542E+00)
 search vector abs. value=  0.417E-06
 bond charge predicted
       N       E                     dE             d eps       ncg     rms          rms(c)
DAV:   1    -0.341483871659E+02   -0.97014E-07   -0.20794E-05  9988   0.283E-02    0.264E-03
DAV:   2    -0.341483871476E+02    0.18286E-07   -0.10750E-06 12200   0.115E-02    0.147E-03
DAV:   3    -0.341483871119E+02    0.35740E-07   -0.13670E-07 12800   0.406E-03    0.822E-04
DAV:   4    -0.341483870879E+02    0.24013E-07   -0.34831E-08  6804   0.250E-03    0.273E-04
DAV:   5    -0.341483870878E+02    0.71850E-10   -0.11747E-08  5792   0.162E-03
  38 F= -.34148387E+02 E0= -.34135308E+02  d E =-.180653E-07
 trial-energy change:   -0.000000  1 .order   -0.000000   -0.000000    0.000000
 step:   0.4934(harm=  0.4934)  dis= 0.00003  next Energy=   -34.148387 (dE=-0.266E-07)
 bond charge predicted
       N       E                     dE             d eps       ncg     rms          rms(c)
DAV:   1    -0.341483870870E+02    0.87493E-09   -0.17099E-07 10056   0.267E-03    0.243E-04
DAV:   2    -0.341483870874E+02   -0.37562E-09   -0.73558E-09  5120   0.130E-03
  39 F= -.34148387E+02 E0= -.34135308E+02  d E =-.176378E-07
 curvature:  -0.96 expect dE=-0.557E-07 dE for cont linesearch -0.370E-09
 trial: gam= 0.23895 g(F)=  0.457E-07 g(S)=  0.125E-07 ort = 0.127E-07 (trialstep = 0.532E+00)
 search vector abs. value=  0.882E-07
 reached required accuracy - stopping structural energy minimisation
 writing wavefunctions
Mon Jan  3 23:28:30 CST 2022
