Mon Jan  3 23:20:14 CST 2022
 running on   48 total cores
 distrk:  each k-point on   48 cores,    1 groups
 distr:  one band on   24 cores,    2 groups
 using from now: INCAR     
 vasp.5.3.5 31Mar14 (build Jan 11 2016 19:50:55) complex                        
  
 POSCAR found type information on POSCAR  Zn Ga N  O 
 POSCAR found :  4 types and       8 ions
 scaLAPACK will be used

 ----------------------------------------------------------------------------- 
|                                                                             |
|           W    W    AA    RRRRR   N    N  II  N    N   GGGG   !!!           |
|           W    W   A  A   R    R  NN   N  II  NN   N  G    G  !!!           |
|           W    W  A    A  R    R  N N  N  II  N N  N  G       !!!           |
|           W WW W  AAAAAA  RRRRR   N  N N  II  N  N N  G  GGG   !            |
|           WW  WW  A    A  R   R   N   NN  II  N   NN  G    G                |
|           W    W  A    A  R    R  N    N  II  N    N   GGGG   !!!           |
|                                                                             |
|      For optimal performance we recommend to set                            |
|        NCORE= 4 - approx SQRT( number of cores)                             |
|      NCORE specifies how many cores store one orbital (NPAR=cpu/NCORE).     |
|      This setting can  greatly improve the performance of VASP for DFT.     |
|      The default, NPAR=number of cores might be grossly inefficient         |
|      on modern multi-core architectures or massively parallel machines.     |
|      Do your own testing !!!!                                               |
|      Unfortunately you need to use the default for GW and RPA calculations. |
|      (for HF NCORE is supported but not extensively tested yet)             |
|                                                                             |
 ----------------------------------------------------------------------------- 

 LDA part: xc-table for Pade appr. of Perdew
 POSCAR, INCAR and KPOINTS ok, starting setup
 WARNING: small aliasing (wrap around) errors must be expected
 FFT: planning ...
 WAVECAR not read
 entering main loop
       N       E                     dE             d eps       ncg     rms          rms(c)
DAV:   1     0.870153528456E+03    0.87015E+03   -0.41535E+04 10136   0.282E+03
DAV:   2     0.146512215281E+03   -0.72364E+03   -0.69618E+03 10168   0.709E+02
DAV:   3    -0.268795088265E+02   -0.17339E+03   -0.16926E+03 11572   0.249E+02
DAV:   4    -0.431272737746E+02   -0.16248E+02   -0.16079E+02 12900   0.777E+01
DAV:   5    -0.435640677499E+02   -0.43679E+00   -0.43482E+00 11396   0.124E+01    0.150E+01
DAV:   6    -0.380650433580E+02    0.54990E+01   -0.20398E+01 18440   0.543E+01    0.717E+00
DAV:   7    -0.382845653739E+02   -0.21952E+00   -0.53590E+00 10364   0.149E+01    0.493E+00
DAV:   8    -0.383070578516E+02   -0.22492E-01   -0.23085E+00 16504   0.143E+01    0.264E+00
DAV:   9    -0.381543721390E+02    0.15269E+00   -0.68925E-01 16720   0.106E+01    0.504E-01
DAV:  10    -0.381698869608E+02   -0.15515E-01   -0.18203E-01 10652   0.241E+00    0.413E-01
DAV:  11    -0.381690258970E+02    0.86106E-03   -0.18530E-02 13944   0.151E+00    0.912E-02
DAV:  12    -0.381696028407E+02   -0.57694E-03   -0.26671E-03 10696   0.669E-01    0.524E-02
DAV:  13    -0.381698895549E+02   -0.28671E-03   -0.52241E-04 11736   0.177E-01    0.246E-02
DAV:  14    -0.381699419997E+02   -0.52445E-04   -0.93141E-05 12412   0.177E-01    0.145E-02
DAV:  15    -0.381699466466E+02   -0.46468E-05   -0.23333E-05 11360   0.717E-02    0.824E-03
DAV:  16    -0.381699491727E+02   -0.25262E-05   -0.15719E-05 11924   0.307E-02    0.352E-03
DAV:  17    -0.381699496548E+02   -0.48202E-06   -0.22511E-06 14220   0.170E-02    0.361E-03
DAV:  18    -0.381699496934E+02   -0.38587E-07   -0.15739E-06 13116   0.883E-03    0.140E-03
DAV:  19    -0.381699497115E+02   -0.18173E-07   -0.36054E-07 12968   0.584E-03    0.467E-04
DAV:  20    -0.381699497136E+02   -0.20518E-08   -0.82716E-08 11140   0.316E-03
   1 F= -.38169950E+02 E0= -.38166709E+02  d E =-.381699E+02
 curvature:   0.00 expect dE= 0.000E+00 dE for cont linesearch  0.000E+00
 trial: gam= 0.00000 g(F)=  0.136E-02 g(S)=  0.238E-01 ort = 0.000E+00 (trialstep = 0.100E+01)
 search vector abs. value=  0.251E-01
 bond charge predicted
       N       E                     dE             d eps       ncg     rms          rms(c)
DAV:   1    -0.383722404497E+02   -0.20229E+00   -0.38268E+00 12448   0.209E+01    0.299E+00
DAV:   2    -0.382238053956E+02    0.14844E+00   -0.77449E-01 13212   0.125E+01    0.122E+00
DAV:   3    -0.382011005356E+02    0.22705E-01   -0.56085E-02 12732   0.279E+00    0.630E-01
DAV:   4    -0.381921566314E+02    0.89439E-02   -0.19085E-02 14332   0.208E+00    0.163E-01
DAV:   5    -0.381919406985E+02    0.21593E-03   -0.55686E-03 11628   0.128E+00    0.678E-02
DAV:   6    -0.381919798333E+02   -0.39135E-04   -0.16215E-03 14568   0.419E-01    0.395E-02
DAV:   7    -0.381919810559E+02   -0.12227E-05   -0.31386E-04 12264   0.203E-01    0.208E-02
DAV:   8    -0.381919866753E+02   -0.56193E-05   -0.43889E-05 11376   0.631E-02    0.110E-02
DAV:   9    -0.381919888603E+02   -0.21850E-05   -0.89164E-06 12476   0.439E-02    0.303E-03
DAV:  10    -0.381919892319E+02   -0.37166E-06   -0.21886E-06 11688   0.244E-02    0.173E-03
DAV:  11    -0.381919894602E+02   -0.22829E-06   -0.98528E-07 12656   0.916E-03    0.126E-03
DAV:  12    -0.381919894733E+02   -0.13029E-07   -0.24198E-07 13272   0.600E-03    0.597E-04
DAV:  13    -0.381919894930E+02   -0.19782E-07   -0.11446E-07 11276   0.325E-03    0.353E-04
DAV:  14    -0.381919894888E+02    0.42319E-08   -0.16048E-08  7768   0.149E-03
   2 F= -.38191989E+02 E0= -.38189095E+02  d E =-.220398E-01
 ZBRENT: can't locate minimum, use default step
 trial-energy change:   -0.022040  1 .order   -0.022180   -0.025128   -0.019233
 step:   4.0000(harm=  4.2626)  dis= 0.01307  next Energy=   -38.223505 (dE=-0.536E-01)
 bond charge predicted
       N       E                     dE             d eps       ncg     rms          rms(c)
DAV:   1    -0.397511791526E+02   -0.15592E+01   -0.33444E+01 12320   0.628E+01    0.875E+00
DAV:   2    -0.385042643158E+02    0.12469E+01   -0.64284E+00 12968   0.296E+01    0.358E+00
DAV:   3    -0.383021482573E+02    0.20212E+00   -0.43758E-01 12856   0.715E+00    0.186E+00
DAV:   4    -0.382234329567E+02    0.78715E-01   -0.13664E-01 13960   0.511E+00    0.414E-01
DAV:   5    -0.382225350303E+02    0.89793E-03   -0.49283E-02 11532   0.353E+00    0.172E-01
DAV:   6    -0.382230697904E+02   -0.53476E-03   -0.11205E-02 12044   0.126E+00    0.103E-01
DAV:   7    -0.382231147789E+02   -0.44989E-04   -0.19411E-03 12264   0.602E-01    0.606E-02
DAV:   8    -0.382231650731E+02   -0.50294E-04   -0.41215E-04 11476   0.259E-01    0.333E-02
DAV:   9    -0.382231827926E+02   -0.17720E-04   -0.11397E-04 13072   0.122E-01    0.108E-02
DAV:  10    -0.382231872436E+02   -0.44509E-05   -0.24079E-05 11260   0.643E-02    0.618E-03
DAV:  11    -0.382231887690E+02   -0.15254E-05   -0.89207E-06 14632   0.393E-02    0.402E-03
DAV:  12    -0.382231889822E+02   -0.21320E-06   -0.22971E-06 13380   0.166E-02    0.221E-03
DAV:  13    -0.382231892010E+02   -0.21884E-06   -0.12536E-06 11600   0.803E-03    0.996E-04
DAV:  14    -0.382231892338E+02   -0.32788E-07   -0.17727E-07 11712   0.366E-03    0.457E-04
DAV:  15    -0.382231892420E+02   -0.81845E-08   -0.61052E-08  9976   0.187E-03
   3 F= -.38223189E+02 E0= -.38221037E+02  d E =-.532395E-01
 curvature:  -2.12 expect dE=-0.175E+00 dE for cont linesearch -0.463E-03
 trial: gam= 3.19923 g(F)=  0.318E-01 g(S)=  0.509E-01 ort = 0.234E-02 (trialstep = 0.113E+00)
 search vector abs. value=  0.355E+00
 bond charge predicted
       N       E                     dE             d eps       ncg     rms          rms(c)
DAV:   1    -0.382497402957E+02   -0.26551E-01   -0.61027E-01 10264   0.588E+00    0.968E-01
DAV:   2    -0.382360771859E+02    0.13663E-01   -0.80346E-02 11332   0.388E+00    0.456E-01
DAV:   3    -0.382326781824E+02    0.33990E-02   -0.77359E-03 12516   0.118E+00    0.228E-01
DAV:   4    -0.382315981319E+02    0.10801E-02   -0.29458E-03 13216   0.823E-01    0.614E-02
DAV:   5    -0.382315989728E+02   -0.84093E-06   -0.88718E-04 11080   0.398E-01    0.280E-02
DAV:   6    -0.382316092322E+02   -0.10259E-04   -0.23814E-04 12780   0.167E-01    0.194E-02
DAV:   7    -0.382316080183E+02    0.12138E-05   -0.38220E-05 11956   0.106E-01    0.976E-03
DAV:   8    -0.382316092291E+02   -0.12107E-05   -0.17521E-05 14864   0.323E-02    0.575E-03
DAV:   9    -0.382316092543E+02   -0.25274E-07   -0.31157E-06 12672   0.191E-02    0.186E-03
DAV:  10    -0.382316093960E+02   -0.14169E-06   -0.66390E-07 10900   0.103E-02    0.731E-04
DAV:  11    -0.382316094197E+02   -0.23658E-07   -0.15652E-07 12500   0.548E-03    0.453E-04
DAV:  12    -0.382316094323E+02   -0.12580E-07   -0.59200E-08 11192   0.266E-03    0.369E-04
DAV:  13    -0.382316094342E+02   -0.19672E-08   -0.23843E-08  8184   0.130E-03
   4 F= -.38231609E+02 E0= -.38229598E+02  d E =-.842019E-02
 trial-energy change:   -0.008420  1 .order   -0.008390   -0.010221   -0.006560
 step:   0.2935(harm=  0.3162)  dis= 0.00631  next Energy=   -38.236946 (dE=-0.138E-01)
 bond charge predicted
       N       E                     dE             d eps       ncg     rms          rms(c)
DAV:   1    -0.382823248644E+02   -0.50715E-01   -0.15302E+00 10260   0.933E+00    0.153E+00
DAV:   2    -0.382483089976E+02    0.34016E-01   -0.19953E-01 11280   0.602E+00    0.720E-01
DAV:   3    -0.382397698259E+02    0.85392E-02   -0.19104E-02 12512   0.181E+00    0.358E-01
DAV:   4    -0.382371036978E+02    0.26661E-02   -0.72725E-03 13280   0.126E+00    0.975E-02
DAV:   5    -0.382371018056E+02    0.18922E-05   -0.21705E-03 11052   0.613E-01    0.443E-02
DAV:   6    -0.382371266591E+02   -0.24853E-04   -0.58573E-04 13160   0.255E-01    0.309E-02
DAV:   7    -0.382371230347E+02    0.36244E-05   -0.91531E-05 11908   0.161E-01    0.155E-02
DAV:   8    -0.382371258749E+02   -0.28402E-05   -0.43505E-05 14324   0.501E-02    0.915E-03
DAV:   9    -0.382371259427E+02   -0.67808E-07   -0.78479E-06 12700   0.299E-02    0.299E-03
DAV:  10    -0.382371263156E+02   -0.37296E-06   -0.17702E-06 11060   0.160E-02    0.118E-03
DAV:  11    -0.382371263762E+02   -0.60596E-07   -0.38164E-07 12500   0.861E-03    0.703E-04
DAV:  12    -0.382371264067E+02   -0.30480E-07   -0.15107E-07 11528   0.408E-03    0.598E-04
DAV:  13    -0.382371264114E+02   -0.47166E-08   -0.64739E-08 11084   0.213E-03
   5 F= -.38237126E+02 E0= -.38235290E+02  d E =-.139372E-01
 curvature:  -0.61 expect dE=-0.155E+00 dE for cont linesearch -0.157E-04
 trial: gam= 3.10250 g(F)=  0.231E+00 g(S)=  0.215E-01 ort = 0.301E-02 (trialstep = 0.144E-01)
 search vector abs. value=  0.369E+01
 bond charge predicted
       N       E                     dE             d eps       ncg     rms          rms(c)
DAV:   1    -0.382436633318E+02   -0.65369E-02   -0.94083E-02 10220   0.233E+00    0.382E-01
DAV:   2    -0.382415665539E+02    0.20968E-02   -0.12271E-02 11240   0.154E+00    0.181E-01
DAV:   3    -0.382410239642E+02    0.54259E-03   -0.11929E-03 12408   0.451E-01    0.886E-02
DAV:   4    -0.382408533041E+02    0.17066E-03   -0.43421E-04 14080   0.326E-01    0.222E-02
DAV:   5    -0.382408536036E+02   -0.29952E-06   -0.13541E-04 10940   0.151E-01    0.103E-02
DAV:   6    -0.382408553719E+02   -0.17683E-05   -0.34419E-05 12604   0.600E-02    0.755E-03
DAV:   7    -0.382408551685E+02    0.20336E-06   -0.44412E-06 12168   0.383E-02    0.391E-03
DAV:   8    -0.382408553868E+02   -0.21830E-06   -0.28097E-06 14280   0.123E-02    0.229E-03
DAV:   9    -0.382408553597E+02    0.27158E-07   -0.49611E-07 12552   0.718E-03    0.818E-04
DAV:  10    -0.382408553810E+02   -0.21319E-07   -0.14718E-07 11260   0.389E-03    0.308E-04
DAV:  11    -0.382408553822E+02   -0.12360E-08   -0.20665E-08  8120   0.232E-03
   6 F= -.38240855E+02 E0= -.38239049E+02  d E =-.372897E-02
 ZBRENT: can't locate minimum, use default step
 trial-energy change:   -0.003729  1 .order   -0.003725   -0.003760   -0.003691
 step:   0.0575(harm=  0.7786)  dis= 0.00434  next Energy=   -38.338969 (dE=-0.102E+00)
 bond charge predicted
       N       E                     dE             d eps       ncg     rms          rms(c)
DAV:   1    -0.382766371896E+02   -0.35782E-01   -0.84241E-01 10212   0.700E+00    0.114E+00
DAV:   2    -0.382579317071E+02    0.18705E-01   -0.10924E-01 11192   0.458E+00    0.541E-01
DAV:   3    -0.382530944505E+02    0.48373E-02   -0.10728E-02 12492   0.133E+00    0.264E-01
DAV:   4    -0.382515873254E+02    0.15071E-02   -0.39147E-03 14180   0.963E-01    0.675E-02
DAV:   5    -0.382515882182E+02   -0.89278E-06   -0.12100E-03 10956   0.447E-01    0.308E-02
DAV:   6    -0.382516052161E+02   -0.16998E-04   -0.31119E-04 12732   0.177E-01    0.228E-02
DAV:   7    -0.382516033445E+02    0.18716E-05   -0.39334E-05 12164   0.114E-01    0.119E-02
DAV:   8    -0.382516051335E+02   -0.17890E-05   -0.25622E-05 14420   0.368E-02    0.677E-03
DAV:   9    -0.382516049547E+02    0.17881E-06   -0.45318E-06 12604   0.219E-02    0.235E-03
DAV:  10    -0.382516051443E+02   -0.18965E-06   -0.12458E-06 11160   0.115E-02    0.902E-04
DAV:  11    -0.382516051816E+02   -0.37309E-07   -0.19521E-07 12132   0.665E-03    0.563E-04
DAV:  12    -0.382516051936E+02   -0.11991E-07   -0.76903E-08 11892   0.286E-03    0.347E-04
DAV:  13    -0.382516051951E+02   -0.14343E-08   -0.27740E-08  8732   0.142E-03
   7 F= -.38251605E+02 E0= -.38249885E+02  d E =-.144788E-01
 curvature:  -0.60 expect dE=-0.141E+00 dE for cont linesearch -0.964E-02
 ZBRENT: increasing intervall
 opt :   0.1437  next Energy=   -38.271383 (dE=-0.343E-01)
 bond charge predicted
       N       E                     dE             d eps       ncg     rms          rms(c)
DAV:   1    -0.383691191836E+02   -0.11751E+00   -0.33258E+00 10208   0.140E+01    0.226E+00
DAV:   2    -0.382959956976E+02    0.73123E-01   -0.42654E-01 11168   0.906E+00    0.107E+00
DAV:   3    -0.382770603584E+02    0.18935E-01   -0.43613E-02 12448   0.263E+00    0.523E-01
DAV:   4    -0.382712062706E+02    0.58541E-02   -0.15651E-02 14112   0.192E+00    0.139E-01
DAV:   5    -0.382711876770E+02    0.18594E-04   -0.48624E-03 10932   0.883E-01    0.617E-02
DAV:   6    -0.382712563118E+02   -0.68635E-04   -0.12722E-03 12872   0.353E-01    0.461E-02
DAV:   7    -0.382712493648E+02    0.69470E-05   -0.15619E-04 12132   0.231E-01    0.246E-02
DAV:   8    -0.382712554100E+02   -0.60452E-05   -0.10829E-04 14712   0.746E-02    0.133E-02
DAV:   9    -0.382712548469E+02    0.56309E-06   -0.18614E-05 12652   0.447E-02    0.468E-03
DAV:  10    -0.382712555814E+02   -0.73450E-06   -0.49458E-06 11152   0.226E-02    0.180E-03
DAV:  11    -0.382712557458E+02   -0.16439E-06   -0.73035E-07 12088   0.126E-02    0.102E-03
DAV:  12    -0.382712558003E+02   -0.54508E-07   -0.28298E-07 12528   0.587E-03    0.714E-04
DAV:  13    -0.382712558097E+02   -0.93778E-08   -0.11734E-07 12896   0.277E-03    0.311E-04
DAV:  14    -0.382712558052E+02    0.44838E-08   -0.26187E-08  9068   0.149E-03
   8 F= -.38271256E+02 E0= -.38269690E+02  d E =-.341294E-01
 curvature:  -1.23 expect dE=-0.263E+00 dE for cont linesearch -0.156E-01
 ZBRENT: increasing intervall
 opt :   0.3162  next Energy=   -38.303791 (dE=-0.667E-01)
 bond charge predicted
       N       E                     dE             d eps       ncg     rms          rms(c)
DAV:   1    -0.386772971269E+02   -0.40604E+00   -0.12966E+01 10212   0.279E+01    0.444E+00
DAV:   2    -0.383990560088E+02    0.27824E+00   -0.16419E+00 11044   0.176E+01    0.211E+00
DAV:   3    -0.383259336116E+02    0.73122E-01   -0.17231E-01 13084   0.496E+00    0.102E+00
DAV:   4    -0.383032097753E+02    0.22724E-01   -0.56328E-02 13604   0.362E+00    0.277E-01
DAV:   5    -0.383030925815E+02    0.11719E-03   -0.18657E-02 10768   0.165E+00    0.120E-01
DAV:   6    -0.383033591228E+02   -0.26654E-03   -0.48989E-03 13356   0.683E-01    0.907E-02
DAV:   7    -0.383033375074E+02    0.21615E-04   -0.57340E-04 12044   0.443E-01    0.495E-02
DAV:   8    -0.383033564611E+02   -0.18954E-04   -0.43058E-04 15196   0.151E-01    0.252E-02
DAV:   9    -0.383033551676E+02    0.12935E-05   -0.81563E-05 12804   0.956E-02    0.722E-03
DAV:  10    -0.383033580204E+02   -0.28528E-05   -0.14996E-05 10988   0.443E-02    0.328E-03
DAV:  11    -0.383033586916E+02   -0.67124E-06   -0.25769E-06 11824   0.226E-02    0.162E-03
DAV:  12    -0.383033588812E+02   -0.18958E-06   -0.81545E-07 11472   0.987E-03    0.133E-03
DAV:  13    -0.383033589210E+02   -0.39743E-07   -0.39621E-07 12884   0.541E-03    0.603E-04
DAV:  14    -0.383033589191E+02    0.18281E-08   -0.84025E-08 12248   0.285E-03
   9 F= -.38303359E+02 E0= -.38302046E+02  d E =-.662325E-01
 curvature:  -2.57 expect dE=-0.472E+00 dE for cont linesearch -0.188E-01
 ZBRENT: increasing intervall
 opt :   0.6612  next Energy=   -38.342029 (dE=-0.105E+00)
 bond charge predicted
       N       E                     dE             d eps       ncg     rms          rms(c)
DAV:   1    -0.397061614270E+02   -0.14028E+01   -0.49374E+01 10192   0.555E+01    0.858E+00
DAV:   2    -0.387046033334E+02    0.10016E+01   -0.62004E+00 10700   0.319E+01    0.409E+00
DAV:   3    -0.384278171699E+02    0.27679E+00   -0.64885E-01 12560   0.866E+00    0.198E+00
DAV:   4    -0.383414155467E+02    0.86402E-01   -0.19417E-01 14036   0.632E+00    0.537E-01
DAV:   5    -0.383403147606E+02    0.11008E-02   -0.63816E-02 10592   0.264E+00    0.225E-01
DAV:   6    -0.383412537482E+02   -0.93899E-03   -0.17789E-02 13972   0.123E+00    0.177E-01
DAV:   7    -0.383410504448E+02    0.20330E-03   -0.22691E-03 12576   0.809E-01    0.915E-02
DAV:   8    -0.383411335009E+02   -0.83056E-04   -0.16927E-03 15752   0.295E-01    0.529E-02
DAV:   9    -0.383411170054E+02    0.16496E-04   -0.32778E-04 13200   0.169E-01    0.140E-02
DAV:  10    -0.383411286120E+02   -0.11607E-04   -0.67366E-05 11148   0.774E-02    0.618E-03
DAV:  11    -0.383411308002E+02   -0.21881E-05   -0.90290E-06 12016   0.480E-02    0.328E-03
DAV:  12    -0.383411315542E+02   -0.75403E-06   -0.27272E-06 12272   0.169E-02    0.239E-03
DAV:  13    -0.383411316731E+02   -0.11894E-06   -0.11331E-06 14336   0.932E-03    0.113E-03
DAV:  14    -0.383411316963E+02   -0.23165E-07   -0.31678E-07 13184   0.562E-03    0.698E-04
DAV:  15    -0.383411317051E+02   -0.88576E-08   -0.76233E-08 11384   0.396E-03
  10 F= -.38341132E+02 E0= -.38340175E+02  d E =-.104005E+00
 curvature:  -5.30 expect dE=-0.915E+00 dE for cont linesearch -0.736E-02
 ZBRENT: increasing intervall
 opt :   1.3511  next Energy=   -38.326691 (dE=-0.896E-01)
 bond charge predicted
       N       E                     dE             d eps       ncg     rms          rms(c)
DAV:   1    -0.428746936497E+02   -0.45336E+01   -0.18051E+02 10172   0.110E+02    0.162E+01
DAV:   2    -0.396610646929E+02    0.32136E+01   -0.22994E+01 10684   0.557E+01    0.776E+00
DAV:   3    -0.386590621432E+02    0.10020E+01   -0.21445E+00 13428   0.139E+01    0.379E+00
DAV:   4    -0.383277428896E+02    0.33132E+00   -0.55804E-01 13572   0.106E+01    0.102E+00
DAV:   5    -0.383222017420E+02    0.55411E-02   -0.19957E-01 10592   0.420E+00    0.393E-01
DAV:   6    -0.383247981880E+02   -0.25964E-02   -0.53278E-02 13600   0.243E+00    0.293E-01
DAV:   7    -0.383242980345E+02    0.50015E-03   -0.77752E-03 12172   0.154E+00    0.150E-01
DAV:   8    -0.383246392284E+02   -0.34119E-03   -0.56776E-03 16416   0.587E-01    0.997E-02
DAV:   9    -0.383245469267E+02    0.92302E-04   -0.14731E-03 13592   0.367E-01    0.221E-02
DAV:  10    -0.383245907047E+02   -0.43778E-04   -0.28904E-04 11096   0.164E-01    0.145E-02
DAV:  11    -0.383245939781E+02   -0.32734E-05   -0.39038E-05 12744   0.901E-02    0.741E-03
DAV:  12    -0.383245978545E+02   -0.38764E-05   -0.17335E-05 11384   0.344E-02    0.600E-03
DAV:  13    -0.383245976065E+02    0.24805E-06   -0.38577E-06 14324   0.251E-02    0.256E-03
DAV:  14    -0.383245978281E+02   -0.22164E-06   -0.21898E-06 13152   0.107E-02    0.187E-03
DAV:  15    -0.383245977984E+02    0.29663E-07   -0.38528E-07 12788   0.501E-03    0.614E-04
DAV:  16    -0.383245978098E+02   -0.11350E-07   -0.12927E-07 10848   0.393E-03    0.170E-04
DAV:  17    -0.383245978149E+02   -0.51359E-08   -0.10238E-08  6800   0.112E-03
  11 F= -.38324598E+02 E0= -.38324033E+02  d E =-.874714E-01
 curvature:  10.41 expect dE= 0.311E+01 dE for cont linesearch  0.169E-01
 ZBRENT: bracketing found
 ZBRENT: interpolating
 opt :   0.9926  next Energy=   -38.352986 (dE=-0.116E+00)
 bond charge predicted
       N       E                     dE             d eps       ncg     rms          rms(c)
DAV:   1    -0.395132693962E+02   -0.11887E+01   -0.44762E+01 10296   0.459E+01    0.787E+00
DAV:   2    -0.386576373878E+02    0.85563E+00   -0.50051E+00 10900   0.286E+01    0.392E+00
DAV:   3    -0.384178211323E+02    0.23982E+00   -0.61823E-01 11964   0.982E+00    0.193E+00
DAV:   4    -0.383450347878E+02    0.72786E-01   -0.18840E-01 12848   0.582E+00    0.409E-01
DAV:   5    -0.383472015955E+02   -0.21668E-02   -0.60595E-02 10684   0.237E+00    0.220E-01
DAV:   6    -0.383474586710E+02   -0.25708E-03   -0.10544E-02 13684   0.121E+00    0.143E-01
DAV:   7    -0.383473321970E+02    0.12647E-03   -0.20725E-03 12584   0.703E-01    0.638E-02
DAV:   8    -0.383474346339E+02   -0.10244E-03   -0.10773E-03 14056   0.225E-01    0.532E-02
DAV:   9    -0.383474020888E+02    0.32545E-04   -0.19197E-04 14052   0.121E-01    0.177E-02
DAV:  10    -0.383474089323E+02   -0.68435E-05   -0.72097E-05 12620   0.842E-02    0.662E-03
DAV:  11    -0.383474099708E+02   -0.10385E-05   -0.82944E-06 11832   0.362E-02    0.535E-03
DAV:  12    -0.383474103738E+02   -0.40303E-06   -0.49733E-06 15116   0.162E-02    0.254E-03
DAV:  13    -0.383474103898E+02   -0.15980E-07   -0.11609E-06 13184   0.111E-02    0.115E-03
DAV:  14    -0.383474104872E+02   -0.97453E-07   -0.33883E-07 11296   0.491E-03    0.666E-04
DAV:  15    -0.383474105203E+02   -0.33071E-07   -0.72093E-08 11352   0.249E-03    0.231E-04
DAV:  16    -0.383474105238E+02   -0.35207E-08   -0.15588E-08  6940   0.193E-03
  12 F= -.38347411E+02 E0= -.38346668E+02  d E =-.110284E+00
 curvature:  -7.31 expect dE=-0.159E+01 dE for cont linesearch -0.519E-04
 trial: gam= 0.29810 g(F)=  0.189E+00 g(S)=  0.282E-01 ort =-0.512E-02 (trialstep = 0.210E+00)
 search vector abs. value=  0.542E+00
 bond charge predicted
       N       E                     dE             d eps       ncg     rms          rms(c)
DAV:   1    -0.384257588128E+02   -0.78348E-01   -0.37357E+00 10780   0.169E+01    0.221E+00
DAV:   2    -0.383658983500E+02    0.59860E-01   -0.55223E-01 11456   0.999E+00    0.971E-01
DAV:   3    -0.383543070244E+02    0.11591E-01   -0.50652E-02 12772   0.220E+00    0.499E-01
DAV:   4    -0.383489779940E+02    0.53290E-02   -0.95268E-03 14428   0.158E+00    0.138E-01
DAV:   5    -0.383488556332E+02    0.12236E-03   -0.41097E-03 11272   0.692E-01    0.560E-02
DAV:   6    -0.383488921178E+02   -0.36485E-04   -0.10594E-03 13436   0.272E-01    0.394E-02
DAV:   7    -0.383488791712E+02    0.12947E-04   -0.95582E-05 12488   0.177E-01    0.213E-02
DAV:   8    -0.383488843585E+02   -0.51872E-05   -0.95273E-05 15220   0.756E-02    0.145E-02
DAV:   9    -0.383488817192E+02    0.26392E-05   -0.26698E-05 13452   0.513E-02    0.353E-03
DAV:  10    -0.383488821937E+02   -0.47448E-06   -0.48632E-06 11672   0.237E-02    0.193E-03
DAV:  11    -0.383488823195E+02   -0.12575E-06   -0.97082E-07 12496   0.106E-02    0.126E-03
DAV:  12    -0.383488823191E+02    0.32651E-09   -0.17819E-07 11120   0.465E-03    0.727E-04
DAV:  13    -0.383488823262E+02   -0.70695E-08   -0.13606E-07 13904   0.274E-03    0.512E-04
DAV:  14    -0.383488823127E+02    0.13479E-07   -0.19924E-08  7640   0.226E-03    0.353E-04
DAV:  15    -0.383488823094E+02    0.33197E-08   -0.21815E-08  8588   0.106E-03
  13 F= -.38348882E+02 E0= -.38348193E+02  d E =-.147179E-02
 trial-energy change:   -0.001472  1 .order   -0.002786   -0.045284    0.039711
 step:   0.1070(harm=  0.1119)  dis= 0.00537  next Energy=   -38.358775 (dE=-0.114E-01)
 bond charge predicted
       N       E                     dE             d eps       ncg     rms          rms(c)
DAV:   1    -0.383771579394E+02   -0.28276E-01   -0.89120E-01 10844   0.819E+00    0.109E+00
DAV:   2    -0.383628215225E+02    0.14336E-01   -0.13586E-01 11840   0.490E+00    0.478E-01
DAV:   3    -0.383600719135E+02    0.27496E-02   -0.12697E-02 12412   0.117E+00    0.244E-01
DAV:   4    -0.383587774709E+02    0.12944E-02   -0.20632E-03 14656   0.745E-01    0.614E-02
DAV:   5    -0.383587738375E+02    0.36334E-05   -0.91845E-04 10612   0.294E-01    0.242E-02
DAV:   6    -0.383587797516E+02   -0.59141E-05   -0.17357E-04 13364   0.127E-01    0.171E-02
DAV:   7    -0.383587773057E+02    0.24459E-05   -0.19163E-05 12612   0.786E-02    0.894E-03
DAV:   8    -0.383587786212E+02   -0.13155E-05   -0.16454E-05 14940   0.293E-02    0.656E-03
DAV:   9    -0.383587780695E+02    0.55168E-06   -0.48593E-06 14192   0.202E-02    0.163E-03
DAV:  10    -0.383587782033E+02   -0.13379E-06   -0.12360E-06 12824   0.117E-02    0.122E-03
DAV:  11    -0.383587782239E+02   -0.20596E-07   -0.17478E-07 11172   0.482E-03    0.797E-04
DAV:  12    -0.383587782331E+02   -0.91450E-08   -0.91062E-08 12964   0.213E-03
  14 F= -.38358778E+02 E0= -.38358064E+02  d E =-.113677E-01
 curvature:  -0.14 expect dE=-0.176E-01 dE for cont linesearch -0.110E-07
 trial: gam= 0.56505 g(F)=  0.100E+00 g(S)=  0.250E-01 ort = 0.206E-03 (trialstep = 0.189E+00)
 search vector abs. value=  0.298E+00
 bond charge predicted
       N       E                     dE             d eps       ncg     rms          rms(c)
DAV:   1    -0.384106689120E+02   -0.51891E-01   -0.16821E+00 10820   0.104E+01    0.142E+00
DAV:   2    -0.383868544165E+02    0.23814E-01   -0.23252E-01 12104   0.606E+00    0.618E-01
DAV:   3    -0.383815089334E+02    0.53455E-02   -0.18532E-02 12144   0.158E+00    0.316E-01
DAV:   4    -0.383793362762E+02    0.21727E-02   -0.51633E-03 14568   0.114E+00    0.841E-02
DAV:   5    -0.383793071832E+02    0.29093E-04   -0.15883E-03 10880   0.496E-01    0.399E-02
DAV:   6    -0.383793121744E+02   -0.49912E-05   -0.44181E-04 14952   0.180E-01    0.250E-02
DAV:   7    -0.383793085959E+02    0.35785E-05   -0.59885E-05 12032   0.119E-01    0.127E-02
DAV:   8    -0.383793102472E+02   -0.16513E-05   -0.33017E-05 14848   0.423E-02    0.785E-03
DAV:   9    -0.383793100150E+02    0.23220E-06   -0.62156E-06 13516   0.248E-02    0.295E-03
DAV:  10    -0.383793102600E+02   -0.24508E-06   -0.24751E-06 12128   0.150E-02    0.204E-03
DAV:  11    -0.383793102200E+02    0.40042E-07   -0.58580E-07 14668   0.855E-03    0.100E-03
DAV:  12    -0.383793102231E+02   -0.30996E-08   -0.18309E-07 11904   0.417E-03    0.542E-04
DAV:  13    -0.383793102193E+02    0.37599E-08   -0.67593E-08 10880   0.202E-03
  15 F= -.38379310E+02 E0= -.38378627E+02  d E =-.205320E-01
 trial-energy change:   -0.020532  1 .order   -0.020546   -0.023733   -0.017359
 step:   0.7054(harm=  0.7054)  dis= 0.02938  next Energy=   -38.402965 (dE=-0.442E-01)
 bond charge predicted
       N       E                     dE             d eps       ncg     rms          rms(c)
DAV:   1    -0.386280748101E+02   -0.24876E+00   -0.12460E+01 10704   0.287E+01    0.383E+00
DAV:   2    -0.384590705072E+02    0.16900E+00   -0.16953E+00 12160   0.157E+01    0.167E+00
DAV:   3    -0.384203107600E+02    0.38760E-01   -0.13210E-01 12028   0.408E+00    0.853E-01
DAV:   4    -0.384045744403E+02    0.15736E-01   -0.38023E-02 14448   0.321E+00    0.230E-01
DAV:   5    -0.384043082504E+02    0.26619E-03   -0.11637E-02 11180   0.148E+00    0.106E-01
DAV:   6    -0.384043834658E+02   -0.75215E-04   -0.35818E-03 14148   0.515E-01    0.680E-02
DAV:   7    -0.384043542023E+02    0.29263E-04   -0.45242E-04 12052   0.343E-01    0.358E-02
DAV:   8    -0.384043639181E+02   -0.97158E-05   -0.25326E-04 15044   0.125E-01    0.208E-02
DAV:   9    -0.384043630399E+02    0.87819E-06   -0.44136E-05 12324   0.650E-02    0.907E-03
DAV:  10    -0.384043645966E+02   -0.15568E-05   -0.24720E-05 13576   0.457E-02    0.598E-03
DAV:  11    -0.384043643279E+02    0.26874E-06   -0.45743E-06 13596   0.290E-02    0.322E-03
DAV:  12    -0.384043643567E+02   -0.28756E-07   -0.18197E-06 13384   0.134E-02    0.159E-03
DAV:  13    -0.384043643719E+02   -0.15216E-07   -0.58389E-07 14316   0.621E-03    0.782E-04
DAV:  14    -0.384043643438E+02    0.28075E-07   -0.12671E-07 13208   0.393E-03    0.309E-04
DAV:  15    -0.384043643439E+02   -0.11096E-09   -0.26300E-08  9044   0.265E-03
  16 F= -.38404364E+02 E0= -.38403758E+02  d E =-.455861E-01
 curvature:  -0.84 expect dE=-0.307E-01 dE for cont linesearch -0.134E-03
 trial: gam= 0.29693 g(F)=  0.124E-01 g(S)=  0.241E-01 ort = 0.690E-02 (trialstep = 0.293E+00)
 search vector abs. value=  0.669E-01
 bond charge predicted
       N       E                     dE             d eps       ncg     rms          rms(c)
DAV:   1    -0.384236297532E+02   -0.19265E-01   -0.73372E-01 10052   0.505E+00    0.686E-01
DAV:   2    -0.384185669299E+02    0.50628E-02   -0.30107E-02 11780   0.217E+00    0.413E-01
DAV:   3    -0.384149156684E+02    0.36513E-02   -0.64813E-03 11752   0.144E+00    0.106E-01
DAV:   4    -0.384149338424E+02   -0.18174E-04   -0.24431E-03 10700   0.767E-01    0.338E-02
DAV:   5    -0.384149793731E+02   -0.45531E-04   -0.59724E-04 11348   0.203E-01    0.244E-02
DAV:   6    -0.384149763840E+02    0.29891E-05   -0.41145E-05 12780   0.121E-01    0.130E-02
DAV:   7    -0.384149778911E+02   -0.15071E-05   -0.19090E-05 12988   0.456E-02    0.589E-03
DAV:   8    -0.384149774087E+02    0.48236E-06   -0.57394E-06 13844   0.320E-02    0.205E-03
DAV:   9    -0.384149775194E+02   -0.11069E-06   -0.17112E-06 11552   0.162E-02    0.199E-03
DAV:  10    -0.384149774719E+02    0.47527E-07   -0.49987E-07 13576   0.801E-03    0.570E-04
DAV:  11    -0.384149774704E+02    0.15325E-08   -0.11865E-07 10480   0.350E-03    0.459E-04
DAV:  12    -0.384149774562E+02    0.14193E-07   -0.33204E-08  9108   0.328E-03    0.328E-04
DAV:  13    -0.384149774557E+02    0.44838E-09   -0.16865E-08  6376   0.146E-03
  17 F= -.38414977E+02 E0= -.38414413E+02  d E =-.106131E-01
 ZBRENT: can't locate minimum, use default step
 trial-energy change:   -0.010613  1 .order   -0.010600   -0.011285   -0.009915
 step:   1.1705(harm=  2.4099)  dis= 0.01805  next Energy=   -38.450837 (dE=-0.465E-01)
 bond charge predicted
       N       E                     dE             d eps       ncg     rms          rms(c)
DAV:   1    -0.385162762071E+02   -0.10130E+00   -0.66096E+00 10064   0.152E+01    0.206E+00
DAV:   2    -0.384706894846E+02    0.45587E-01   -0.26624E-01 11412   0.630E+00    0.124E+00
DAV:   3    -0.384380385657E+02    0.32651E-01   -0.64795E-02 12036   0.483E+00    0.332E-01
DAV:   4    -0.384380935821E+02   -0.55016E-04   -0.22610E-02 10664   0.253E+00    0.108E-01
DAV:   5    -0.384385569148E+02   -0.46333E-03   -0.62967E-03 11692   0.604E-01    0.730E-02
DAV:   6    -0.384385192018E+02    0.37713E-04   -0.42617E-04 12668   0.280E-01    0.450E-02
DAV:   7    -0.384385353937E+02   -0.16192E-04   -0.21585E-04 14648   0.169E-01    0.190E-02
DAV:   8    -0.384385304677E+02    0.49260E-05   -0.49891E-05 13992   0.919E-02    0.783E-03
DAV:   9    -0.384385321388E+02   -0.16710E-05   -0.22241E-05 10776   0.423E-02    0.740E-03
DAV:  10    -0.384385315155E+02    0.62325E-06   -0.45128E-06 14088   0.166E-02    0.243E-03
DAV:  11    -0.384385316330E+02   -0.11751E-06   -0.17972E-06 11420   0.136E-02    0.145E-03
DAV:  12    -0.384385315942E+02    0.38772E-07   -0.34831E-07 12740   0.687E-03    0.843E-04
DAV:  13    -0.384385315934E+02    0.84583E-09   -0.12887E-07 11544   0.364E-03    0.398E-04
DAV:  14    -0.384385315897E+02    0.37016E-08   -0.27988E-08  8488   0.242E-03
  18 F= -.38438532E+02 E0= -.38438072E+02  d E =-.341672E-01
 curvature:  -1.37 expect dE=-0.166E-01 dE for cont linesearch -0.774E-02
 ZBRENT: increasing intervall
 opt :   2.9261  next Energy=   -38.447199 (dE=-0.428E-01)
 bond charge predicted
       N       E                     dE             d eps       ncg     rms          rms(c)
DAV:   1    -0.387542298266E+02   -0.31570E+00   -0.26504E+01 10076   0.304E+01    0.414E+00
DAV:   2    -0.385754944030E+02    0.17874E+00   -0.10751E+00 11524   0.122E+01    0.249E+00
DAV:   3    -0.384451072119E+02    0.13039E+00   -0.28158E-01 12488   0.113E+01    0.716E-01
DAV:   4    -0.384437635520E+02    0.13437E-02   -0.92477E-02 10848   0.534E+00    0.244E-01
DAV:   5    -0.384455015883E+02   -0.17380E-02   -0.29007E-02 13524   0.124E+00    0.159E-01
DAV:   6    -0.384453573226E+02    0.14427E-03   -0.33849E-03 12476   0.606E-01    0.106E-01
DAV:   7    -0.384453968824E+02   -0.39560E-04   -0.11860E-03 12868   0.786E-01    0.445E-02
DAV:   8    -0.384453871453E+02    0.97371E-05   -0.34620E-04 11776   0.369E-01    0.245E-02
DAV:   9    -0.384453903476E+02   -0.32023E-05   -0.17122E-04 14688   0.155E-01    0.190E-02
DAV:  10    -0.384453877756E+02    0.25720E-05   -0.42038E-05 13052   0.122E-01    0.658E-03
DAV:  11    -0.384453886455E+02   -0.86989E-06   -0.14600E-05 11032   0.375E-02    0.319E-03
DAV:  12    -0.384453886841E+02   -0.38590E-07   -0.35996E-06 11604   0.554E-02    0.335E-03
DAV:  13    -0.384453886413E+02    0.42818E-07   -0.15192E-06 13116   0.338E-02    0.115E-03
DAV:  14    -0.384453886491E+02   -0.78189E-08   -0.40089E-07 13212   0.584E-03    0.330E-04
DAV:  15    -0.384453886522E+02   -0.30868E-08   -0.71100E-08 10596   0.349E-03
  19 F= -.38445389E+02 E0= -.38445063E+02  d E =-.410243E-01
 curvature:  -1.54 expect dE=-0.538E-01 dE for cont linesearch -0.325E-02
 ZBRENT: bracketing found
 ZBRENT: interpolating
 opt :   2.2591  next Energy=   -38.449355 (dE=-0.450E-01)
 bond charge predicted
       N       E                     dE             d eps       ncg     rms          rms(c)
DAV:   1    -0.384942672977E+02   -0.48879E-01   -0.38277E+00 10064   0.116E+01    0.158E+00
DAV:   2    -0.384681192065E+02    0.26148E-01   -0.16509E-01 11152   0.499E+00    0.956E-01
DAV:   3    -0.384493734955E+02    0.18746E-01   -0.37667E-02 12164   0.316E+00    0.257E-01
DAV:   4    -0.384492065916E+02    0.16690E-03   -0.11719E-02 10676   0.171E+00    0.841E-02
DAV:   5    -0.384494451814E+02   -0.23859E-03   -0.33942E-03 11648   0.531E-01    0.605E-02
DAV:   6    -0.384494221187E+02    0.23063E-04   -0.25613E-04 11972   0.340E-01    0.332E-02
DAV:   7    -0.384494303260E+02   -0.82073E-05   -0.14770E-04 13236   0.134E-01    0.162E-02
DAV:   8    -0.384494288444E+02    0.14816E-05   -0.39484E-05 12812   0.740E-02    0.812E-03
DAV:   9    -0.384494295596E+02   -0.71519E-06   -0.23913E-05 15172   0.448E-02    0.611E-03
DAV:  10    -0.384494293641E+02    0.19544E-06   -0.37469E-06 12532   0.323E-02    0.395E-03
DAV:  11    -0.384494294078E+02   -0.43658E-07   -0.22164E-06 13316   0.107E-02    0.986E-04
DAV:  12    -0.384494294712E+02   -0.63471E-07   -0.35813E-07 11452   0.127E-02    0.645E-04
DAV:  13    -0.384494294995E+02   -0.28302E-07   -0.77759E-08 10588   0.235E-03    0.466E-04
DAV:  14    -0.384494295015E+02   -0.19709E-08   -0.43533E-08 10280   0.494E-03
  20 F= -.38449430E+02 E0= -.38449064E+02  d E =-.450652E-01
 curvature:  -1.88 expect dE=-0.306E-01 dE for cont linesearch -0.487E-05
 trial: gam= 0.50260 g(F)=  0.111E-01 g(S)=  0.526E-02 ort = 0.417E-03 (trialstep = 0.686E+00)
 search vector abs. value=  0.336E-01
 bond charge predicted
       N       E                     dE             d eps       ncg     rms          rms(c)
DAV:   1    -0.384907829665E+02   -0.41353E-01   -0.21998E+00 10356   0.996E+00    0.146E+00
DAV:   2    -0.384641312915E+02    0.26652E-01   -0.19631E-01 11312   0.568E+00    0.725E-01
DAV:   3    -0.384558445537E+02    0.82867E-02   -0.21885E-02 14176   0.180E+00    0.349E-01
DAV:   4    -0.384535195614E+02    0.23250E-02   -0.62972E-03 12772   0.106E+00    0.898E-02
DAV:   5    -0.384535538771E+02   -0.34316E-04   -0.19717E-03 10784   0.528E-01    0.420E-02
DAV:   6    -0.384535595149E+02   -0.56378E-05   -0.43414E-04 13980   0.258E-01    0.268E-02
DAV:   7    -0.384535577196E+02    0.17953E-05   -0.68697E-05 11916   0.132E-01    0.136E-02
DAV:   8    -0.384535593602E+02   -0.16405E-05   -0.38852E-05 14456   0.431E-02    0.899E-03
DAV:   9    -0.384535582939E+02    0.10663E-05   -0.84626E-06 14004   0.267E-02    0.260E-03
DAV:  10    -0.384535584300E+02   -0.13609E-06   -0.18888E-06 10972   0.129E-02    0.144E-03
DAV:  11    -0.384535583748E+02    0.55215E-07   -0.38007E-07 11960   0.736E-03    0.814E-04
DAV:  12    -0.384535583681E+02    0.66793E-08   -0.14360E-07 12708   0.443E-03    0.497E-04
DAV:  13    -0.384535583624E+02    0.57098E-08   -0.45554E-08 10184   0.170E-03
  21 F= -.38453558E+02 E0= -.38453246E+02  d E =-.412886E-02
 trial-energy change:   -0.004129  1 .order   -0.004084   -0.011335    0.003167
 step:   0.5383(harm=  0.5361)  dis= 0.00686  next Energy=   -38.453899 (dE=-0.447E-02)
 bond charge predicted
       N       E                     dE             d eps       ncg     rms          rms(c)
DAV:   1    -0.384556405556E+02   -0.20822E-02   -0.10135E-01 10340   0.210E+00    0.313E-01
DAV:   2    -0.384543908850E+02    0.12497E-02   -0.87304E-03 11336   0.120E+00    0.156E-01
DAV:   3    -0.384540094328E+02    0.38145E-03   -0.10181E-03 14248   0.406E-01    0.752E-02
DAV:   4    -0.384539037373E+02    0.10570E-03   -0.29351E-04 12524   0.235E-01    0.191E-02
DAV:   5    -0.384539060593E+02   -0.23219E-05   -0.91202E-05 10804   0.116E-01    0.905E-03
DAV:   6    -0.384539064449E+02   -0.38564E-06   -0.20177E-05 14092   0.593E-02    0.561E-03
DAV:   7    -0.384539063645E+02    0.80432E-07   -0.32330E-06 11740   0.278E-02    0.283E-03
DAV:   8    -0.384539064120E+02   -0.47457E-07   -0.16723E-06 14284   0.903E-03    0.189E-03
DAV:   9    -0.384539063870E+02    0.24904E-07   -0.38402E-07 14100   0.570E-03    0.509E-04
DAV:  10    -0.384539063975E+02   -0.10404E-07   -0.72263E-08 10008   0.283E-03    0.298E-04
DAV:  11    -0.384539064090E+02   -0.11583E-07   -0.15409E-08  7404   0.150E-03    0.169E-04
DAV:  12    -0.384539064144E+02   -0.53788E-08   -0.65597E-09  5800   0.970E-04
  22 F= -.38453906E+02 E0= -.38453583E+02  d E =-.447691E-02
 curvature:  -0.55 expect dE=-0.507E-01 dE for cont linesearch -0.529E-08
 trial: gam= 5.72330 g(F)=  0.765E-01 g(S)=  0.164E-01 ort = 0.181E-04 (trialstep = 0.185E-01)
 search vector abs. value=  0.120E+01
 bond charge predicted
       N       E                     dE             d eps       ncg     rms          rms(c)
DAV:   1    -0.384566455339E+02   -0.27391E-02   -0.57100E-02 10556   0.176E+00    0.253E-01
DAV:   2    -0.384558432426E+02    0.80229E-03   -0.64747E-03 11292   0.106E+00    0.117E-01
DAV:   3    -0.384556466139E+02    0.19663E-03   -0.61575E-04 13936   0.290E-01    0.579E-02
DAV:   4    -0.384555728127E+02    0.73801E-04   -0.15666E-04 14180   0.176E-01    0.134E-02
DAV:   5    -0.384555731705E+02   -0.35777E-06   -0.53612E-05 10676   0.785E-02    0.639E-03
DAV:   6    -0.384555733837E+02   -0.21328E-06   -0.11697E-05 13648   0.376E-02    0.480E-03
DAV:   7    -0.384555732509E+02    0.13287E-06   -0.17078E-06 12056   0.218E-02    0.248E-03
DAV:   8    -0.384555732977E+02   -0.46849E-07   -0.12412E-06 15140   0.738E-03    0.147E-03
DAV:   9    -0.384555732555E+02    0.42198E-07   -0.27117E-07 13700   0.466E-03    0.369E-04
DAV:  10    -0.384555732567E+02   -0.11250E-08   -0.50322E-08 10044   0.229E-03
  23 F= -.38455573E+02 E0= -.38455258E+02  d E =-.166684E-02
 ZBRENT: can't locate minimum, use default step
 trial-energy change:   -0.001667  1 .order   -0.001667   -0.001719   -0.001614
 step:   0.0739(harm=  0.3023)  dis= 0.00585  next Energy=   -38.467971 (dE=-0.141E-01)
 bond charge predicted
       N       E                     dE             d eps       ncg     rms          rms(c)
DAV:   1    -0.384694835822E+02   -0.13910E-01   -0.51347E-01 10468   0.530E+00    0.758E-01
DAV:   2    -0.384623326556E+02    0.71509E-02   -0.58577E-02 11308   0.321E+00    0.348E-01
DAV:   3    -0.384605951079E+02    0.17375E-02   -0.56057E-03 14088   0.861E-01    0.173E-01
DAV:   4    -0.384599359892E+02    0.65912E-03   -0.13922E-03 14092   0.527E-01    0.406E-02
DAV:   5    -0.384599408493E+02   -0.48600E-05   -0.48519E-04 10676   0.233E-01    0.193E-02
DAV:   6    -0.384599430278E+02   -0.21786E-05   -0.10499E-04 13736   0.109E-01    0.146E-02
DAV:   7    -0.384599417706E+02    0.12572E-05   -0.15374E-05 11924   0.641E-02    0.763E-03
DAV:   8    -0.384599419572E+02   -0.18656E-06   -0.11428E-05 15280   0.223E-02    0.435E-03
DAV:   9    -0.384599416852E+02    0.27205E-06   -0.24837E-06 13772   0.141E-02    0.112E-03
DAV:  10    -0.384599417092E+02   -0.24006E-07   -0.43646E-07 11008   0.647E-03    0.734E-04
DAV:  11    -0.384599416857E+02    0.23482E-07   -0.86419E-08 11264   0.306E-03    0.323E-04
DAV:  12    -0.384599416779E+02    0.77971E-08   -0.23318E-08  8840   0.145E-03
  24 F= -.38459942E+02 E0= -.38459650E+02  d E =-.603526E-02
 curvature:  -0.68 expect dE=-0.374E-01 dE for cont linesearch -0.284E-02
 ZBRENT: increasing intervall
 opt :   0.1848  next Energy=   -38.465866 (dE=-0.120E-01)
 bond charge predicted
       N       E                     dE             d eps       ncg     rms          rms(c)
DAV:   1    -0.385033588367E+02   -0.43417E-01   -0.20498E+00 10472   0.106E+01    0.151E+00
DAV:   2    -0.384752373280E+02    0.28122E-01   -0.23320E-01 11308   0.633E+00    0.693E-01
DAV:   3    -0.384684271412E+02    0.68102E-02   -0.22715E-02 13888   0.167E+00    0.345E-01
DAV:   4    -0.384658125341E+02    0.26146E-02   -0.54027E-03 13804   0.104E+00    0.821E-02
DAV:   5    -0.384658350507E+02   -0.22517E-04   -0.19815E-03 10684   0.468E-01    0.384E-02
DAV:   6    -0.384658442447E+02   -0.91939E-05   -0.41601E-04 13672   0.214E-01    0.293E-02
DAV:   7    -0.384658394874E+02    0.47572E-05   -0.62047E-05 11924   0.127E-01    0.154E-02
DAV:   8    -0.384658398925E+02   -0.40509E-06   -0.45271E-05 15192   0.451E-02    0.853E-03
DAV:   9    -0.384658389566E+02    0.93585E-06   -0.10592E-05 13784   0.292E-02    0.219E-03
DAV:  10    -0.384658390326E+02   -0.75930E-07   -0.15433E-06 10992   0.135E-02    0.143E-03
DAV:  11    -0.384658389917E+02    0.40837E-07   -0.42724E-07 12972   0.602E-03    0.558E-04
DAV:  12    -0.384658389806E+02    0.11097E-07   -0.65697E-08 10692   0.242E-03    0.398E-04
DAV:  13    -0.384658389723E+02    0.83282E-08   -0.23099E-08  7956   0.114E-03
  25 F= -.38465839E+02 E0= -.38465589E+02  d E =-.119326E-01
 curvature:  -1.43 expect dE=-0.291E-01 dE for cont linesearch -0.162E-02
 ZBRENT: increasing intervall
 opt :   0.4065  next Energy=   -38.466531 (dE=-0.126E-01)
 bond charge predicted
       N       E                     dE             d eps       ncg     rms          rms(c)
DAV:   1    -0.386117126389E+02   -0.14587E+00   -0.81729E+00 10512   0.215E+01    0.300E+00
DAV:   2    -0.385034693959E+02    0.10824E+00   -0.92681E-01 11292   0.126E+01    0.137E+00
DAV:   3    -0.384768183910E+02    0.26651E-01   -0.88348E-02 14000   0.314E+00    0.684E-01
DAV:   4    -0.384664624458E+02    0.10356E-01   -0.20466E-02 13760   0.204E+00    0.163E-01
DAV:   5    -0.384665525080E+02   -0.90062E-04   -0.77191E-03 10680   0.904E-01    0.759E-02
DAV:   6    -0.384665903316E+02   -0.37824E-04   -0.16044E-03 13808   0.396E-01    0.579E-02
DAV:   7    -0.384665721345E+02    0.18197E-04   -0.23607E-04 11940   0.244E-01    0.300E-02
DAV:   8    -0.384665722977E+02   -0.16315E-06   -0.16138E-04 14900   0.842E-02    0.154E-02
DAV:   9    -0.384665697862E+02    0.25115E-05   -0.40297E-05 13508   0.600E-02    0.472E-03
DAV:  10    -0.384665697866E+02   -0.39017E-09   -0.50074E-06 10984   0.328E-02    0.275E-03
DAV:  11    -0.384665697609E+02    0.25636E-07   -0.23784E-06 13612   0.131E-02    0.134E-03
DAV:  12    -0.384665697219E+02    0.39005E-07   -0.27378E-07 11528   0.567E-03    0.708E-04
DAV:  13    -0.384665697087E+02    0.13172E-07   -0.96901E-08 12196   0.244E-03    0.277E-04
DAV:  14    -0.384665697027E+02    0.59954E-08   -0.11204E-08  7176   0.115E-03
  26 F= -.38466570E+02 E0= -.38466384E+02  d E =-.126633E-01
 curvature:  -0.61 expect dE=-0.184E-01 dE for cont linesearch -0.424E-03
 ZBRENT: bracketing found
 ZBRENT: interpolating
 opt :   0.3091  next Energy=   -38.467971 (dE=-0.141E-01)
 bond charge predicted
       N       E                     dE             d eps       ncg     rms          rms(c)
DAV:   1    -0.384964966403E+02   -0.29927E-01   -0.15474E+00 10496   0.900E+00    0.130E+00
DAV:   2    -0.384751586655E+02    0.21338E-01   -0.17068E-01 11360   0.548E+00    0.605E-01
DAV:   3    -0.384699316425E+02    0.52270E-02   -0.16830E-02 13384   0.154E+00    0.301E-01
DAV:   4    -0.384680092975E+02    0.19223E-02   -0.44863E-03 14140   0.914E-01    0.663E-02
DAV:   5    -0.384680434317E+02   -0.34134E-04   -0.14750E-03 10700   0.387E-01    0.327E-02
DAV:   6    -0.384680503757E+02   -0.69439E-05   -0.29370E-04 13492   0.177E-01    0.235E-02
DAV:   7    -0.384680459447E+02    0.44310E-05   -0.47967E-05 12608   0.114E-01    0.108E-02
DAV:   8    -0.384680467721E+02   -0.82741E-06   -0.25884E-05 13776   0.332E-02    0.700E-03
DAV:   9    -0.384680461879E+02    0.58416E-06   -0.66705E-06 13276   0.229E-02    0.177E-03
DAV:  10    -0.384680462337E+02   -0.45748E-07   -0.10030E-06 11068   0.128E-02    0.126E-03
DAV:  11    -0.384680462498E+02   -0.16164E-07   -0.31201E-07 14224   0.638E-03    0.486E-04
DAV:  12    -0.384680462819E+02   -0.32072E-07   -0.78608E-08 10432   0.211E-03    0.392E-04
DAV:  13    -0.384680462904E+02   -0.84938E-08   -0.15835E-08  7284   0.114E-03
  27 F= -.38468046E+02 E0= -.38467835E+02  d E =-.141399E-01
 curvature:  -2.02 expect dE=-0.269E-01 dE for cont linesearch -0.647E-07
 trial: gam= 0.12406 g(F)=  0.848E-02 g(S)=  0.485E-02 ort =-0.196E-03 (trialstep = 0.766E-01)
 search vector abs. value=  0.317E-01
 bond charge predicted
       N       E                     dE             d eps       ncg     rms          rms(c)
DAV:   1    -0.384698438240E+02   -0.17975E-02   -0.32487E-02 11836   0.154E+00    0.212E-01
DAV:   2    -0.384691885950E+02    0.65523E-03   -0.48640E-03 12176   0.924E-01    0.833E-02
DAV:   3    -0.384690889056E+02    0.99689E-04   -0.35192E-04 12548   0.209E-01    0.424E-02
DAV:   4    -0.384690465298E+02    0.42376E-04   -0.94227E-05 14456   0.130E-01    0.115E-02
DAV:   5    -0.384690455210E+02    0.10087E-05   -0.31815E-05 11092   0.596E-02    0.568E-03
DAV:   6    -0.384690453116E+02    0.20945E-06   -0.97515E-06 15524   0.268E-02    0.383E-03
DAV:   7    -0.384690451162E+02    0.19540E-06   -0.18270E-06 13244   0.158E-02    0.133E-03
DAV:   8    -0.384690451570E+02   -0.40849E-07   -0.52543E-07 11840   0.508E-03    0.964E-04
DAV:   9    -0.384690451475E+02    0.95461E-08   -0.82021E-08 12488   0.447E-03
  28 F= -.38469045E+02 E0= -.38468837E+02  d E =-.998857E-03
 ZBRENT: can't locate minimum, use default step
 trial-energy change:   -0.000999  1 .order   -0.001000   -0.001019   -0.000980
 step:   0.3064(harm=  1.9838)  dis= 0.00269  next Energy=   -38.481243 (dE=-0.132E-01)
 bond charge predicted
       N       E                     dE             d eps       ncg     rms          rms(c)
DAV:   1    -0.384789436986E+02   -0.98985E-02   -0.29251E-01 11864   0.463E+00    0.634E-01
DAV:   2    -0.384730598806E+02    0.58838E-02   -0.43478E-02 12224   0.277E+00    0.249E-01
DAV:   3    -0.384721797355E+02    0.88015E-03   -0.31748E-03 12100   0.620E-01    0.127E-01
DAV:   4    -0.384718072777E+02    0.37246E-03   -0.87800E-04 14712   0.399E-01    0.344E-02
DAV:   5    -0.384718006437E+02    0.66340E-05   -0.28590E-04 11112   0.181E-01    0.172E-02
DAV:   6    -0.384717996688E+02    0.97497E-06   -0.90344E-05 15700   0.802E-02    0.116E-02
DAV:   7    -0.384717978672E+02    0.18015E-05   -0.15623E-05 13144   0.489E-02    0.429E-03
DAV:   8    -0.384717981205E+02   -0.25323E-06   -0.50850E-06 12608   0.158E-02    0.286E-03
DAV:   9    -0.384717980398E+02    0.80633E-07   -0.82560E-07 12632   0.136E-02    0.109E-03
DAV:  10    -0.384717980274E+02    0.12463E-07   -0.27114E-07 13168   0.726E-03    0.640E-04
DAV:  11    -0.384717980136E+02    0.13751E-07   -0.89128E-08 11836   0.290E-03    0.444E-04
DAV:  12    -0.384717980064E+02    0.72105E-08   -0.28483E-08  9180   0.146E-03
  29 F= -.38471798E+02 E0= -.38471599E+02  d E =-.375172E-02
 curvature:  -0.53 expect dE=-0.543E-02 dE for cont linesearch -0.212E-02
 ZBRENT: increasing intervall
 opt :   0.7661  next Energy=   -38.476218 (dE=-0.817E-02)
 bond charge predicted
       N       E                     dE             d eps       ncg     rms          rms(c)
DAV:   1    -0.385044618971E+02   -0.32664E-01   -0.11693E+00 11876   0.929E+00    0.126E+00
DAV:   2    -0.384811583427E+02    0.23304E-01   -0.17190E-01 12248   0.542E+00    0.496E-01
DAV:   3    -0.384777105574E+02    0.34478E-02   -0.12877E-02 11964   0.121E+00    0.253E-01
DAV:   4    -0.384762394694E+02    0.14711E-02   -0.34794E-03 15024   0.792E-01    0.686E-02
DAV:   5    -0.384762143037E+02    0.25166E-04   -0.11255E-03 11092   0.361E-01    0.341E-02
DAV:   6    -0.384762123823E+02    0.19213E-05   -0.35874E-04 15476   0.157E-01    0.232E-02
DAV:   7    -0.384762051152E+02    0.72671E-05   -0.60172E-05 13132   0.975E-02    0.866E-03
DAV:   8    -0.384762060398E+02   -0.92458E-06   -0.20836E-05 12840   0.318E-02    0.581E-03
DAV:   9    -0.384762056922E+02    0.34760E-06   -0.33800E-06 12672   0.268E-02    0.229E-03
DAV:  10    -0.384762056594E+02    0.32805E-07   -0.12217E-06 13420   0.145E-02    0.133E-03
DAV:  11    -0.384762056322E+02    0.27197E-07   -0.38790E-07 12572   0.586E-03    0.967E-04
DAV:  12    -0.384762056152E+02    0.16970E-07   -0.13190E-07 12480   0.315E-03    0.546E-04
DAV:  13    -0.384762056028E+02    0.12432E-07   -0.49632E-08  9912   0.167E-03    0.163E-04
DAV:  14    -0.384762055979E+02    0.48967E-08   -0.97247E-09  5904   0.126E-03
  30 F= -.38476206E+02 E0= -.38476022E+02  d E =-.815931E-02
 curvature:  -1.12 expect dE=-0.101E-01 dE for cont linesearch -0.227E-02
 ZBRENT: increasing intervall
 opt :   1.6853  next Energy=   -38.480655 (dE=-0.126E-01)
 bond charge predicted
       N       E                     dE             d eps       ncg     rms          rms(c)
DAV:   1    -0.385910672935E+02   -0.11486E+00   -0.46711E+00 11896   0.187E+01    0.250E+00
DAV:   2    -0.385001948829E+02    0.90872E-01   -0.67704E-01 12320   0.103E+01    0.985E-01
DAV:   3    -0.384865024478E+02    0.13692E-01   -0.48399E-02 11976   0.227E+00    0.504E-01
DAV:   4    -0.384806771480E+02    0.58253E-02   -0.13457E-02 14864   0.152E+00    0.129E-01
DAV:   5    -0.384806141494E+02    0.62999E-04   -0.43898E-03 11048   0.731E-01    0.650E-02
DAV:   6    -0.384806134627E+02    0.68672E-06   -0.13262E-03 15452   0.305E-01    0.439E-02
DAV:   7    -0.384805874094E+02    0.26053E-04   -0.22433E-04 13240   0.189E-01    0.160E-02
DAV:   8    -0.384805912528E+02   -0.38434E-05   -0.76319E-05 12880   0.610E-02    0.118E-02
DAV:   9    -0.384805896879E+02    0.15648E-05   -0.12515E-05 12876   0.519E-02    0.480E-03
DAV:  10    -0.384805895408E+02    0.14708E-06   -0.54512E-06 13860   0.277E-02    0.285E-03
DAV:  11    -0.384805894808E+02    0.60076E-07   -0.16978E-06 12464   0.120E-02    0.221E-03
DAV:  12    -0.384805894177E+02    0.63071E-07   -0.59392E-07 12796   0.636E-03    0.112E-03
DAV:  13    -0.384805893890E+02    0.28729E-07   -0.21360E-07 12200   0.317E-03    0.303E-04
DAV:  14    -0.384805893800E+02    0.89676E-08   -0.40347E-08 10156   0.249E-03
  31 F= -.38480589E+02 E0= -.38480435E+02  d E =-.125431E-01
 curvature:  -2.19 expect dE=-0.438E-01 dE for cont linesearch -0.161E-03
 trial: gam= 1.37648 g(F)=  0.170E-01 g(S)=  0.302E-02 ort = 0.153E-02 (trialstep = 0.150E+00)
 search vector abs. value=  0.842E-01
 bond charge predicted
       N       E                     dE             d eps       ncg     rms          rms(c)
DAV:   1    -0.384865634853E+02   -0.59741E-02   -0.34687E-01 10280   0.404E+00    0.550E-01
DAV:   2    -0.384826728183E+02    0.38907E-02   -0.33527E-02 11244   0.227E+00    0.250E-01
DAV:   3    -0.384817886533E+02    0.88417E-03   -0.31848E-03 13388   0.681E-01    0.130E-01
DAV:   4    -0.384814909665E+02    0.29769E-03   -0.84536E-04 12368   0.379E-01    0.408E-02
DAV:   5    -0.384814826168E+02    0.83496E-05   -0.25380E-04 10760   0.166E-01    0.171E-02
DAV:   6    -0.384814815971E+02    0.10197E-05   -0.71903E-05 14928   0.998E-02    0.101E-02
DAV:   7    -0.384814807461E+02    0.85106E-06   -0.13043E-05 11736   0.552E-02    0.501E-03
DAV:   8    -0.384814810762E+02   -0.33012E-06   -0.78080E-06 16104   0.183E-02    0.388E-03
DAV:   9    -0.384814808244E+02    0.25176E-06   -0.12773E-06 13084   0.105E-02    0.163E-03
DAV:  10    -0.384814808045E+02    0.19955E-07   -0.59027E-07 12712   0.744E-03    0.622E-04
DAV:  11    -0.384814807871E+02    0.17371E-07   -0.88929E-08 11844   0.398E-03    0.479E-04
DAV:  12    -0.384814807747E+02    0.12462E-07   -0.38049E-08  9404   0.157E-03    0.209E-04
DAV:  13    -0.384814807712E+02    0.34224E-08   -0.95661E-09  6024   0.138E-03
  32 F= -.38481481E+02 E0= -.38481334E+02  d E =-.891391E-03
 trial-energy change:   -0.000891  1 .order   -0.000874   -0.003310    0.001562
 step:   0.1025(harm=  0.1018)  dis= 0.00195  next Energy=   -38.481727 (dE=-0.114E-02)
 bond charge predicted
       N       E                     dE             d eps       ncg     rms          rms(c)
DAV:   1    -0.384822379513E+02   -0.75718E-03   -0.34569E-02 10252   0.127E+00    0.174E-01
DAV:   2    -0.384818444193E+02    0.39353E-03   -0.33247E-03 11216   0.717E-01    0.791E-02
DAV:   3    -0.384817581351E+02    0.86284E-04   -0.31791E-04 13200   0.217E-01    0.412E-02
DAV:   4    -0.384817292872E+02    0.28848E-04   -0.84914E-05 12296   0.122E-01    0.129E-02
DAV:   5    -0.384817290572E+02    0.22994E-06   -0.25847E-05 10756   0.535E-02    0.540E-03
DAV:   6    -0.384817291503E+02   -0.93091E-07   -0.72971E-06 14572   0.312E-02    0.320E-03
DAV:   7    -0.384817290565E+02    0.93825E-07   -0.13503E-06 11724   0.176E-02    0.159E-03
DAV:   8    -0.384817290742E+02   -0.17696E-07   -0.80251E-07 16300   0.570E-03    0.122E-03
DAV:   9    -0.384817290621E+02    0.12072E-07   -0.12394E-07 13268   0.312E-03    0.503E-04
DAV:  10    -0.384817290665E+02   -0.43192E-08   -0.54418E-08 10872   0.215E-03
  33 F= -.38481729E+02 E0= -.38481580E+02  d E =-.113969E-02
 curvature:  -0.19 expect dE=-0.161E-02 dE for cont linesearch -0.252E-09
 trial: gam= 0.52742 g(F)=  0.638E-02 g(S)=  0.193E-02 ort = 0.105E-04 (trialstep = 0.140E+00)
 search vector abs. value=  0.317E-01
 bond charge predicted
       N       E                     dE             d eps       ncg     rms          rms(c)
DAV:   1    -0.384842886661E+02   -0.25596E-02   -0.99740E-02 10116   0.214E+00    0.293E-01
DAV:   2    -0.384832363821E+02    0.10523E-02   -0.88764E-03 10776   0.126E+00    0.138E-01
DAV:   3    -0.384829505778E+02    0.28580E-03   -0.95583E-04 11892   0.382E-01    0.690E-02
DAV:   4    -0.384828478296E+02    0.10275E-03   -0.23816E-04 13132   0.233E-01    0.163E-02
DAV:   5    -0.384828495922E+02   -0.17626E-05   -0.92801E-05 10720   0.936E-02    0.793E-03
DAV:   6    -0.384828498987E+02   -0.30649E-06   -0.16080E-05 13424   0.481E-02    0.481E-03
DAV:   7    -0.384828497853E+02    0.11337E-06   -0.26181E-06 11784   0.297E-02    0.249E-03
DAV:   8    -0.384828498849E+02   -0.99521E-07   -0.18129E-06 15664   0.966E-03    0.175E-03
DAV:   9    -0.384828498165E+02    0.68369E-07   -0.31479E-07 13300   0.503E-03    0.660E-04
DAV:  10    -0.384828498114E+02    0.50350E-08   -0.12491E-07 12496   0.331E-03    0.347E-04
DAV:  11    -0.384828498034E+02    0.80508E-08   -0.15359E-08  6464   0.175E-03
  34 F= -.38482850E+02 E0= -.38482704E+02  d E =-.112074E-02
 ZBRENT: can't locate minimum, use default step
 trial-energy change:   -0.001121  1 .order   -0.001120   -0.001167   -0.001074
 step:   0.5615(harm=  1.7502)  dis= 0.00628  next Energy=   -38.489006 (dE=-0.728E-02)
 bond charge predicted
       N       E                     dE             d eps       ncg     rms          rms(c)
DAV:   1    -0.384984663783E+02   -0.15617E-01   -0.89752E-01 10112   0.644E+00    0.878E-01
DAV:   2    -0.384890804412E+02    0.93859E-02   -0.79472E-02 10740   0.381E+00    0.412E-01
DAV:   3    -0.384865448521E+02    0.25356E-02   -0.87057E-03 12060   0.114E+00    0.206E-01
DAV:   4    -0.384856273417E+02    0.91751E-03   -0.21359E-03 13064   0.692E-01    0.494E-02
DAV:   5    -0.384856447798E+02   -0.17438E-04   -0.83158E-04 10716   0.281E-01    0.239E-02
DAV:   6    -0.384856481302E+02   -0.33503E-05   -0.14452E-04 13440   0.150E-01    0.144E-02
DAV:   7    -0.384856473191E+02    0.81107E-06   -0.23927E-05 11852   0.908E-02    0.758E-03
DAV:   8    -0.384856481485E+02   -0.82941E-06   -0.16646E-05 15856   0.297E-02    0.518E-03
DAV:   9    -0.384856476575E+02    0.49103E-06   -0.30086E-06 13280   0.154E-02    0.197E-03
DAV:  10    -0.384856476631E+02   -0.56525E-08   -0.11513E-06 13036   0.101E-02    0.107E-03
DAV:  11    -0.384856476345E+02    0.28647E-07   -0.15320E-07 11712   0.521E-03    0.856E-04
DAV:  12    -0.384856476049E+02    0.29556E-07   -0.11209E-07 10284   0.248E-03    0.446E-04
DAV:  13    -0.384856476035E+02    0.14825E-08   -0.34996E-08 11464   0.179E-03
  35 F= -.38485648E+02 E0= -.38485509E+02  d E =-.391854E-02
 curvature:  -1.52 expect dE=-0.169E-01 dE for cont linesearch -0.151E-02
 ZBRENT: increasing intervall
 opt :   1.4036  next Energy=   -38.488664 (dE=-0.694E-02)
 bond charge predicted
       N       E                     dE             d eps       ncg     rms          rms(c)
DAV:   1    -0.385388033867E+02   -0.53156E-01   -0.35828E+00 10112   0.129E+01    0.175E+00
DAV:   2    -0.385021715935E+02    0.36632E-01   -0.31503E-01 10700   0.738E+00    0.820E-01
DAV:   3    -0.384921520910E+02    0.10020E-01   -0.34549E-02 12080   0.226E+00    0.410E-01
DAV:   4    -0.384885268321E+02    0.36253E-02   -0.84934E-03 12760   0.137E+00    0.975E-02
DAV:   5    -0.384886038353E+02   -0.77003E-04   -0.33097E-03 10724   0.567E-01    0.470E-02
DAV:   6    -0.384886191422E+02   -0.15307E-04   -0.57867E-04 13388   0.309E-01    0.283E-02
DAV:   7    -0.384886163150E+02    0.28273E-05   -0.95482E-05 11708   0.186E-01    0.148E-02
DAV:   8    -0.384886198465E+02   -0.35315E-05   -0.67883E-05 16180   0.610E-02    0.105E-02
DAV:   9    -0.384886178733E+02    0.19731E-05   -0.13533E-05 13564   0.326E-02    0.362E-03
DAV:  10    -0.384886179621E+02   -0.88758E-07   -0.44237E-06 12928   0.215E-02    0.220E-03
DAV:  11    -0.384886178811E+02    0.81050E-07   -0.55531E-07 11804   0.104E-02    0.165E-03
DAV:  12    -0.384886178195E+02    0.61534E-07   -0.48460E-07 14620   0.525E-03    0.884E-04
DAV:  13    -0.384886178130E+02    0.64874E-08   -0.11005E-07 12752   0.332E-03    0.501E-04
DAV:  14    -0.384886178042E+02    0.88776E-08   -0.38321E-08  9028   0.129E-03
  36 F= -.38488618E+02 E0= -.38488493E+02  d E =-.688874E-02
 curvature:  -3.04 expect dE=-0.658E-01 dE for cont linesearch -0.179E-03
 trial: gam= 1.45293 g(F)=  0.205E-01 g(S)=  0.121E-02 ort = 0.137E-02 (trialstep = 0.135E+00)
 search vector abs. value=  0.927E-01
 bond charge predicted
       N       E                     dE             d eps       ncg     rms          rms(c)
DAV:   1    -0.384924823126E+02   -0.38645E-02   -0.28515E-01 10424   0.380E+00    0.475E-01
DAV:   2    -0.384901695769E+02    0.23127E-02   -0.28072E-02 10980   0.223E+00    0.225E-01
DAV:   3    -0.384895240083E+02    0.64557E-03   -0.29535E-03 12056   0.590E-01    0.117E-01
DAV:   4    -0.384892448884E+02    0.27912E-03   -0.56845E-04 13772   0.374E-01    0.297E-02
DAV:   5    -0.384892492301E+02   -0.43417E-05   -0.25027E-04 10640   0.145E-01    0.127E-02
DAV:   6    -0.384892496545E+02   -0.42437E-06   -0.39419E-05 13248   0.726E-02    0.803E-03
DAV:   7    -0.384892490776E+02    0.57693E-06   -0.56594E-06 12900   0.453E-02    0.384E-03
DAV:   8    -0.384892492445E+02   -0.16690E-06   -0.37654E-06 15288   0.136E-02    0.273E-03
DAV:   9    -0.384892490780E+02    0.16647E-06   -0.88343E-07 14284   0.749E-03    0.802E-04
DAV:  10    -0.384892490673E+02    0.10717E-07   -0.29647E-07 13960   0.588E-03    0.633E-04
DAV:  11    -0.384892490537E+02    0.13591E-07   -0.51837E-08 10268   0.277E-03    0.492E-04
DAV:  12    -0.384892490451E+02    0.85574E-08   -0.37459E-08  9396   0.131E-03
  37 F= -.38489249E+02 E0= -.38489125E+02  d E =-.631241E-03
 trial-energy change:   -0.000631  1 .order   -0.000646   -0.003186    0.001894
 step:   0.0839(harm=  0.0844)  dis= 0.00174  next Energy=   -38.489607 (dE=-0.989E-03)
 bond charge predicted
       N       E                     dE             d eps       ncg     rms          rms(c)
DAV:   1    -0.384900630919E+02   -0.81404E-03   -0.40388E-02 10452   0.143E+00    0.179E-01
DAV:   2    -0.384897343045E+02    0.32879E-03   -0.40099E-03 10988   0.831E-01    0.849E-02
DAV:   3    -0.384896429124E+02    0.91392E-04   -0.40501E-04 11808   0.226E-01    0.442E-02
DAV:   4    -0.384896034991E+02    0.39413E-04   -0.82704E-05 14080   0.144E-01    0.108E-02
DAV:   5    -0.384896045585E+02   -0.10594E-05   -0.35042E-05 10624   0.544E-02    0.475E-03
DAV:   6    -0.384896046736E+02   -0.11508E-06   -0.53975E-06 13168   0.259E-02    0.295E-03
DAV:   7    -0.384896045865E+02    0.87114E-07   -0.76353E-07 13060   0.167E-02    0.139E-03
DAV:   8    -0.384896046189E+02   -0.32416E-07   -0.47175E-07 15188   0.481E-03    0.963E-04
DAV:   9    -0.384896046179E+02    0.10468E-08   -0.11021E-07 13764   0.275E-03    0.296E-04
DAV:  10    -0.384896046258E+02   -0.79426E-08   -0.36023E-08 10496   0.216E-03
  38 F= -.38489605E+02 E0= -.38489480E+02  d E =-.986822E-03
 curvature:  -0.17 expect dE=-0.610E-03 dE for cont linesearch -0.216E-08
 trial: gam= 0.26737 g(F)=  0.312E-02 g(S)=  0.566E-03 ort =-0.348E-04 (trialstep = 0.124E+00)
 search vector abs. value=  0.103E-01
 bond charge predicted
       N       E                     dE             d eps       ncg     rms          rms(c)
DAV:   1    -0.384902763725E+02   -0.67175E-03   -0.26420E-02 10068   0.101E+00    0.121E-01
DAV:   2    -0.384901241603E+02    0.15221E-03   -0.15698E-03 11320   0.501E-01    0.603E-02
DAV:   3    -0.384900657432E+02    0.58417E-04   -0.17600E-04 11316   0.173E-01    0.297E-02
DAV:   4    -0.384900478720E+02    0.17871E-04   -0.52485E-05 12140   0.111E-01    0.605E-03
DAV:   5    -0.384900486924E+02   -0.82038E-06   -0.18854E-05 10792   0.497E-02    0.346E-03
DAV:   6    -0.384900488003E+02   -0.10790E-06   -0.33921E-06 12964   0.261E-02    0.224E-03
DAV:   7    -0.384900487914E+02    0.88721E-08   -0.59097E-07 11408   0.137E-02    0.981E-04
DAV:   8    -0.384900488082E+02   -0.16787E-07   -0.30525E-07 14812   0.504E-03    0.574E-04
DAV:   9    -0.384900487960E+02    0.12239E-07   -0.46718E-08 11300   0.263E-03    0.263E-04
DAV:  10    -0.384900487924E+02    0.36125E-08   -0.20636E-08  8296   0.149E-03
  39 F= -.38490049E+02 E0= -.38489924E+02  d E =-.444167E-03
 ZBRENT: can't locate minimum, use default step
 trial-energy change:   -0.000444  1 .order   -0.000440   -0.000458   -0.000422
 step:   0.4980(harm=  1.5915)  dis= 0.00349  next Energy=   -38.492531 (dE=-0.293E-02)
 bond charge predicted
       N       E                     dE             d eps       ncg     rms          rms(c)
DAV:   1    -0.384932024538E+02   -0.31537E-02   -0.23782E-01 10068   0.304E+00    0.364E-01
DAV:   2    -0.384918340601E+02    0.13684E-02   -0.14137E-02 11304   0.151E+00    0.181E-01
DAV:   3    -0.384913124050E+02    0.52166E-03   -0.15871E-03 11316   0.518E-01    0.892E-02
DAV:   4    -0.384911514786E+02    0.16093E-03   -0.47196E-04 11996   0.329E-01    0.181E-02
DAV:   5    -0.384911597148E+02   -0.82362E-05   -0.17015E-04 10792   0.149E-01    0.104E-02
DAV:   6    -0.384911609092E+02   -0.11944E-05   -0.30073E-05 12932   0.784E-02    0.671E-03
DAV:   7    -0.384911609036E+02    0.55361E-08   -0.53089E-06 11372   0.410E-02    0.288E-03
DAV:   8    -0.384911610393E+02   -0.13569E-06   -0.26851E-06 14908   0.153E-02    0.167E-03
DAV:   9    -0.384911609838E+02    0.55484E-07   -0.42122E-07 12740   0.775E-03    0.777E-04
DAV:  10    -0.384911609742E+02    0.95797E-08   -0.17229E-07 12992   0.445E-03    0.532E-04
DAV:  11    -0.384911609641E+02    0.10166E-07   -0.32859E-08 10020   0.209E-03    0.329E-04
DAV:  12    -0.384911609551E+02    0.89503E-08   -0.25758E-08  7952   0.118E-03
  40 F= -.38491161E+02 E0= -.38491037E+02  d E =-.155633E-02
 curvature:  -0.99 expect dE=-0.372E-02 dE for cont linesearch -0.623E-03
 ZBRENT: increasing intervall
 opt :   1.2449  next Energy=   -38.492431 (dE=-0.283E-02)
 bond charge predicted
       N       E                     dE             d eps       ncg     rms          rms(c)
DAV:   1    -0.385005156990E+02   -0.93547E-02   -0.95092E-01 10072   0.609E+00    0.726E-01
DAV:   2    -0.384950975735E+02    0.54181E-02   -0.56479E-02 11284   0.303E+00    0.361E-01
DAV:   3    -0.384930360645E+02    0.20615E-02   -0.64455E-03 11364   0.104E+00    0.178E-01
DAV:   4    -0.384923913506E+02    0.64471E-03   -0.18826E-03 11788   0.648E-01    0.361E-02
DAV:   5    -0.384924253575E+02   -0.34007E-04   -0.68420E-04 10760   0.289E-01    0.207E-02
DAV:   6    -0.384924299715E+02   -0.46141E-05   -0.11595E-04 13080   0.155E-01    0.133E-02
DAV:   7    -0.384924299257E+02    0.45867E-07   -0.20465E-05 11372   0.810E-02    0.577E-03
DAV:   8    -0.384924304342E+02   -0.50854E-06   -0.10730E-05 15088   0.294E-02    0.335E-03
DAV:   9    -0.384924302419E+02    0.19230E-06   -0.16921E-06 13132   0.150E-02    0.153E-03
DAV:  10    -0.384924302240E+02    0.17937E-07   -0.69240E-07 13528   0.897E-03    0.111E-03
DAV:  11    -0.384924301941E+02    0.29864E-07   -0.13140E-07 12192   0.398E-03    0.628E-04
DAV:  12    -0.384924301753E+02    0.18767E-07   -0.93474E-08 11780   0.202E-03    0.351E-04
DAV:  13    -0.384924301726E+02    0.26803E-08   -0.10842E-08  6108   0.143E-03
  41 F= -.38492430E+02 E0= -.38492307E+02  d E =-.282555E-02
 curvature:  -2.02 expect dE=-0.125E-01 dE for cont linesearch -0.140E-03
 trial: gam= 0.86890 g(F)=  0.524E-02 g(S)=  0.966E-03 ort = 0.844E-03 (trialstep = 0.232E+00)
 search vector abs. value=  0.154E-01
 bond charge predicted
       N       E                     dE             d eps       ncg     rms          rms(c)
DAV:   1    -0.384931133335E+02   -0.68316E-03   -0.15768E-01 10032   0.219E+00    0.231E-01
DAV:   2    -0.384925906728E+02    0.52266E-03   -0.55059E-03 11896   0.714E-01    0.137E-01
DAV:   3    -0.384922645809E+02    0.32609E-03   -0.80814E-04 12656   0.353E-01    0.573E-02
DAV:   4    -0.384922371852E+02    0.27396E-04   -0.21448E-04 11576   0.224E-01    0.202E-02
DAV:   5    -0.384922371678E+02    0.17386E-07   -0.62970E-05 12028   0.111E-01    0.814E-03
DAV:   6    -0.384922372656E+02   -0.97809E-07   -0.14213E-05 12044   0.565E-02    0.363E-03
DAV:   7    -0.384922375044E+02   -0.23880E-06   -0.36866E-06 11544   0.239E-02    0.239E-03
DAV:   8    -0.384922375117E+02   -0.72505E-08   -0.98779E-07 14056   0.141E-02    0.133E-03
DAV:   9    -0.384922375098E+02    0.18426E-08   -0.29493E-07 10700   0.699E-03    0.818E-04
DAV:  10    -0.384922374914E+02    0.18467E-07   -0.12963E-07 14180   0.274E-03    0.272E-04
DAV:  11    -0.384922374773E+02    0.14054E-07   -0.36674E-08 10348   0.173E-03    0.280E-04
DAV:  12    -0.384922374729E+02    0.44165E-08   -0.51498E-09  5888   0.860E-04
  42 F= -.38492237E+02 E0= -.38492116E+02  d E =0.192700E-03
 trial-energy change:    0.000193  1 .order    0.000201   -0.001613    0.002014
 step:   0.1040(harm=  0.1033)  dis= 0.00103  next Energy=   -38.492792 (dE=-0.362E-03)
 bond charge predicted
       N       E                     dE             d eps       ncg     rms          rms(c)
DAV:   1    -0.384930642600E+02   -0.82678E-03   -0.48035E-02 10020   0.121E+00    0.127E-01
DAV:   2    -0.384929016274E+02    0.16263E-03   -0.16769E-03 12108   0.392E-01    0.759E-02
DAV:   3    -0.384928024840E+02    0.99143E-04   -0.23861E-04 12528   0.191E-01    0.321E-02
DAV:   4    -0.384927939066E+02    0.85774E-05   -0.63382E-05 11500   0.121E-01    0.112E-02
DAV:   5    -0.384927941901E+02   -0.28351E-06   -0.19051E-05 11960   0.603E-02    0.449E-03
DAV:   6    -0.384927943013E+02   -0.11115E-06   -0.42209E-06 12184   0.311E-02    0.204E-03
DAV:   7    -0.384927943785E+02   -0.77214E-07   -0.10671E-06 11372   0.129E-02    0.132E-03
DAV:   8    -0.384927943859E+02   -0.74024E-08   -0.28617E-07 13968   0.756E-03    0.737E-04
DAV:   9    -0.384927943939E+02   -0.80190E-08   -0.82750E-08 10416   0.394E-03
  43 F= -.38492794E+02 E0= -.38492672E+02  d E =-.364221E-03
 curvature:  -0.11 expect dE=-0.343E-03 dE for cont linesearch -0.496E-08
 trial: gam= 0.60432 g(F)=  0.271E-02 g(S)=  0.280E-03 ort = 0.258E-04 (trialstep = 0.207E+00)
 search vector abs. value=  0.866E-02
 bond charge predicted
       N       E                     dE             d eps       ncg     rms          rms(c)
DAV:   1    -0.384936898970E+02   -0.89551E-03   -0.65398E-02 10196   0.151E+00    0.151E-01
DAV:   2    -0.384934685028E+02    0.22139E-03   -0.26748E-03 10952   0.625E-01    0.790E-02
DAV:   3    -0.384933806114E+02    0.87891E-04   -0.31598E-04 11848   0.250E-01    0.379E-02
DAV:   4    -0.384933545942E+02    0.26017E-04   -0.99346E-05 11948   0.157E-01    0.966E-03
DAV:   5    -0.384933555364E+02   -0.94221E-06   -0.32232E-05 10948   0.756E-02    0.444E-03
DAV:   6    -0.384933557945E+02   -0.25804E-06   -0.73475E-06 12476   0.360E-02    0.300E-03
DAV:   7    -0.384933558064E+02   -0.11956E-07   -0.14610E-06 11736   0.199E-02    0.136E-03
DAV:   8    -0.384933558251E+02   -0.18713E-07   -0.51651E-07 12688   0.783E-03    0.703E-04
DAV:   9    -0.384933558224E+02    0.27212E-08   -0.12297E-07 11016   0.441E-03    0.321E-04
DAV:  10    -0.384933558181E+02    0.43128E-08   -0.25663E-08  8672   0.267E-03
  44 F= -.38493356E+02 E0= -.38493233E+02  d E =-.561424E-03
 ZBRENT: can't locate minimum, use default step
 trial-energy change:   -0.000561  1 .order   -0.000566   -0.000620   -0.000511
 step:   0.8265(harm=  1.1748)  dis= 0.00544  next Energy=   -38.494558 (dE=-0.176E-02)
 bond charge predicted
       N       E                     dE             d eps       ncg     rms          rms(c)
DAV:   1    -0.384973917701E+02   -0.40359E-02   -0.58919E-01 10196   0.455E+00    0.454E-01
DAV:   2    -0.384954162299E+02    0.19755E-02   -0.24275E-02 10920   0.189E+00    0.237E-01
DAV:   3    -0.384946318495E+02    0.78438E-03   -0.28449E-03 11924   0.750E-01    0.114E-01
DAV:   4    -0.384943964151E+02    0.23543E-03   -0.88923E-04 11788   0.463E-01    0.289E-02
DAV:   5    -0.384944059568E+02   -0.95418E-05   -0.28804E-04 10964   0.226E-01    0.133E-02
DAV:   6    -0.384944086283E+02   -0.26715E-05   -0.64949E-05 12420   0.109E-01    0.900E-03
DAV:   7    -0.384944088631E+02   -0.23476E-06   -0.13297E-05 11732   0.599E-02    0.408E-03
DAV:   8    -0.384944090430E+02   -0.17993E-06   -0.46693E-06 12476   0.238E-02    0.210E-03
DAV:   9    -0.384944090530E+02   -0.10004E-07   -0.12019E-06 11356   0.134E-02    0.103E-03
DAV:  10    -0.384944090341E+02    0.18954E-07   -0.26691E-07 13088   0.832E-03    0.417E-04
DAV:  11    -0.384944090215E+02    0.12558E-07   -0.92392E-08 11648   0.332E-03    0.363E-04
DAV:  12    -0.384944090111E+02    0.10424E-07   -0.31472E-08  9460   0.150E-03    0.198E-04
DAV:  13    -0.384944090091E+02    0.19891E-08   -0.86964E-09  5612   0.769E-04
  45 F= -.38494409E+02 E0= -.38494285E+02  d E =-.161462E-02
 curvature:  -1.47 expect dE=-0.830E-02 dE for cont linesearch -0.142E-03
 trial: gam= 0.88222 g(F)=  0.517E-02 g(S)=  0.460E-03 ort = 0.912E-03 (trialstep = 0.205E+00)
 search vector abs. value=  0.140E-01
 bond charge predicted
       N       E                     dE             d eps       ncg     rms          rms(c)
DAV:   1    -0.384945161836E+02   -0.10717E-03   -0.11839E-01 10244   0.223E+00    0.213E-01
DAV:   2    -0.384943149946E+02    0.20119E-03   -0.85208E-03 11364   0.110E+00    0.104E-01
DAV:   3    -0.384942268781E+02    0.88117E-04   -0.75249E-04 11868   0.269E-01    0.572E-02
DAV:   4    -0.384941799676E+02    0.46911E-04   -0.13596E-04 14568   0.168E-01    0.177E-02
DAV:   5    -0.384941789099E+02    0.10577E-05   -0.40947E-05 10980   0.750E-02    0.550E-03
DAV:   6    -0.384941788973E+02    0.12617E-07   -0.91933E-06 12720   0.386E-02    0.343E-03
DAV:   7    -0.384941788355E+02    0.61755E-07   -0.12699E-06 12580   0.202E-02    0.168E-03
DAV:   8    -0.384941788639E+02   -0.28355E-07   -0.71717E-07 15268   0.684E-03    0.108E-03
DAV:   9    -0.384941788250E+02    0.38940E-07   -0.14259E-07 13412   0.409E-03    0.347E-04
DAV:  10    -0.384941788194E+02    0.55143E-08   -0.37943E-08 10336   0.193E-03
  46 F= -.38494179E+02 E0= -.38494052E+02  d E =0.230190E-03
 trial-energy change:    0.000230  1 .order    0.000223   -0.001318    0.001764
 step:   0.0869(harm=  0.0876)  dis= 0.00107  next Energy=   -38.494688 (dE=-0.279E-03)
 bond charge predicted
       N       E                     dE             d eps       ncg     rms          rms(c)
DAV:   1    -0.384947982406E+02   -0.61942E-03   -0.39174E-02 10252   0.128E+00    0.123E-01
DAV:   2    -0.384947320888E+02    0.66152E-04   -0.28438E-03 11356   0.627E-01    0.596E-02
DAV:   3    -0.384947040702E+02    0.28019E-04   -0.24674E-04 11964   0.158E-01    0.327E-02
DAV:   4    -0.384946884999E+02    0.15570E-04   -0.45755E-05 14460   0.980E-02    0.980E-03
DAV:   5    -0.384946885474E+02   -0.47519E-07   -0.13702E-05 10992   0.427E-02    0.321E-03
DAV:   6    -0.384946885741E+02   -0.26671E-07   -0.30369E-06 12756   0.222E-02    0.197E-03
DAV:   7    -0.384946885386E+02    0.35543E-07   -0.43071E-07 12664   0.118E-02    0.941E-04
DAV:   8    -0.384946885375E+02    0.10059E-08   -0.22360E-07 15032   0.379E-03    0.588E-04
DAV:   9    -0.384946885435E+02   -0.59799E-08   -0.44312E-08 10624   0.236E-03
  47 F= -.38494689E+02 E0= -.38494564E+02  d E =-.279534E-03
 curvature:  -0.10 expect dE=-0.964E-04 dE for cont linesearch -0.104E-08
 trial: gam= 0.33755 g(F)=  0.814E-03 g(S)=  0.199E-03 ort =-0.124E-04 (trialstep = 0.181E+00)
 search vector abs. value=  0.260E-02
 bond charge predicted
       N       E                     dE             d eps       ncg     rms          rms(c)
DAV:   1    -0.384949491753E+02   -0.26064E-03   -0.15320E-02 10224   0.828E-01    0.892E-02
DAV:   2    -0.384948872051E+02    0.61970E-04   -0.11953E-03 11640   0.419E-01    0.390E-02
DAV:   3    -0.384948703504E+02    0.16855E-04   -0.92708E-05 11752   0.116E-01    0.200E-02
DAV:   4    -0.384948623345E+02    0.80160E-05   -0.22733E-05 14048   0.688E-02    0.524E-03
DAV:   5    -0.384948621273E+02    0.20720E-06   -0.63795E-06 10768   0.336E-02    0.217E-03
DAV:   6    -0.384948621202E+02    0.70340E-08   -0.14883E-06 12756   0.135E-02    0.138E-03
DAV:   7    -0.384948621187E+02    0.14870E-08   -0.22522E-07 12200   0.848E-03    0.675E-04
DAV:   8    -0.384948621274E+02   -0.87111E-08   -0.83208E-08 12824   0.256E-03
  48 F= -.38494862E+02 E0= -.38494736E+02  d E =-.173584E-03
 ZBRENT: can't locate minimum, use default step
 trial-energy change:   -0.000174  1 .order   -0.000173   -0.000183   -0.000164
 step:   0.7249(harm=  1.7449)  dis= 0.00266  next Energy=   -38.495345 (dE=-0.656E-03)
 bond charge predicted
       N       E                     dE             d eps       ncg     rms          rms(c)
DAV:   1    -0.384960458986E+02   -0.11838E-02   -0.13797E-01 10232   0.249E+00    0.267E-01
DAV:   2    -0.384954882427E+02    0.55766E-03   -0.10761E-02 11640   0.126E+00    0.117E-01
DAV:   3    -0.384953406134E+02    0.14763E-03   -0.83090E-04 11736   0.347E-01    0.599E-02
DAV:   4    -0.384952701985E+02    0.70415E-04   -0.20414E-04 13848   0.206E-01    0.156E-02
DAV:   5    -0.384952692865E+02    0.91197E-06   -0.58004E-05 10780   0.101E-01    0.650E-03
DAV:   6    -0.384952694031E+02   -0.11666E-06   -0.13442E-05 12792   0.412E-02    0.414E-03
DAV:   7    -0.384952693473E+02    0.55872E-07   -0.20670E-06 12308   0.259E-02    0.202E-03
DAV:   8    -0.384952693737E+02   -0.26400E-07   -0.77669E-07 14284   0.773E-03    0.986E-04
DAV:   9    -0.384952693668E+02    0.68831E-08   -0.14509E-07 11944   0.389E-03    0.411E-04
DAV:  10    -0.384952693665E+02    0.32469E-09   -0.28139E-08  8504   0.344E-03
  49 F= -.38495269E+02 E0= -.38495140E+02  d E =-.580823E-03
 curvature:  -1.29 expect dE=-0.339E-02 dE for cont linesearch -0.171E-03
 ZBRENT: increasing intervall
 opt :   1.8122  next Energy=   -38.495562 (dE=-0.874E-03)
 bond charge predicted
       N       E                     dE             d eps       ncg     rms          rms(c)
DAV:   1    -0.384986337382E+02   -0.33644E-02   -0.55251E-01 10232   0.500E+00    0.534E-01
DAV:   2    -0.384964289277E+02    0.22048E-02   -0.43104E-02 11612   0.253E+00    0.233E-01
DAV:   3    -0.384958532662E+02    0.57566E-03   -0.33792E-03 12008   0.688E-01    0.120E-01
DAV:   4    -0.384955703129E+02    0.28295E-03   -0.78892E-04 13600   0.400E-01    0.310E-02
DAV:   5    -0.384955678141E+02    0.24988E-05   -0.23153E-04 10816   0.198E-01    0.129E-02
DAV:   6    -0.384955682907E+02   -0.47658E-06   -0.51468E-05 12724   0.848E-02    0.828E-03
DAV:   7    -0.384955680394E+02    0.25130E-06   -0.82966E-06 12588   0.516E-02    0.405E-03
DAV:   8    -0.384955680826E+02   -0.43265E-07   -0.29878E-06 14144   0.154E-02    0.194E-03
DAV:   9    -0.384955680566E+02    0.26003E-07   -0.57876E-07 11844   0.723E-03    0.828E-04
DAV:  10    -0.384955680494E+02    0.72168E-08   -0.11693E-07 11672   0.629E-03    0.436E-04
DAV:  11    -0.384955680385E+02    0.10918E-07   -0.39676E-08 10016   0.253E-03    0.217E-04
DAV:  12    -0.384955680271E+02    0.11439E-07   -0.12222E-08  6492   0.908E-04    0.148E-04
DAV:  13    -0.384955680228E+02    0.43119E-08   -0.32201E-09  5716   0.603E-04
  50 F= -.38495568E+02 E0= -.38495431E+02  d E =-.879479E-03
 curvature:  -2.21 expect dE=-0.188E-01 dE for cont linesearch -0.190E-05
 trial: gam= 6.53450 g(F)=  0.778E-02 g(S)=  0.727E-03 ort =-0.473E-04 (trialstep = 0.111E-01)
 search vector abs. value=  0.119E+00
 bond charge predicted
       N       E                     dE             d eps       ncg     rms          rms(c)
DAV:   1    -0.384956663963E+02   -0.98369E-04   -0.26525E-03 10120   0.319E-01    0.336E-02
DAV:   2    -0.384956576884E+02    0.87079E-05   -0.15600E-04 11444   0.144E-01    0.160E-02
DAV:   3    -0.384956543146E+02    0.33738E-05   -0.14064E-05 12812   0.490E-02    0.828E-03
DAV:   4    -0.384956531186E+02    0.11960E-05   -0.41427E-06 12312   0.280E-02    0.242E-03
DAV:   5    -0.384956530596E+02    0.59004E-07   -0.11087E-06 11272   0.156E-02    0.101E-03
DAV:   6    -0.384956530459E+02    0.13710E-07   -0.28693E-07 13500   0.681E-03    0.495E-04
DAV:   7    -0.384956530488E+02   -0.28613E-08   -0.50257E-08 10316   0.358E-03
  51 F= -.38495653E+02 E0= -.38495515E+02  d E =-.850260E-04
 ZBRENT: can't locate minimum, use default step
 trial-energy change:   -0.000085  1 .order   -0.000085   -0.000091   -0.000079
 step:   0.0444(harm=  0.0825)  dis= 0.00130  next Energy=   -38.495831 (dE=-0.263E-03)
 bond charge predicted
       N       E                     dE             d eps       ncg     rms          rms(c)
DAV:   1    -0.384959561194E+02   -0.30307E-03   -0.23886E-02 10112   0.958E-01    0.101E-01
[...]
DAV:   5    -0.385074874675E+02   -0.30066E-07   -0.17024E-07 10740   0.427E-03    0.320E-04
DAV:   6    -0.385074874704E+02   -0.28922E-08   -0.27582E-08  7800   0.210E-03
 283 F= -.38507487E+02 E0= -.38507228E+02  d E =-.157863E-04
 curvature:  -0.29 expect dE=-0.268E-04 dE for cont linesearch -0.104E-04
 ZBRENT: increasing intervall
 opt :   0.3773  next Energy=   -38.507509 (dE=-0.375E-04)
 bond charge predicted
       N       E                     dE             d eps       ncg     rms          rms(c)
DAV:   1    -0.385075118089E+02   -0.24341E-04   -0.26035E-03 10072   0.310E-01    0.250E-02
DAV:   2    -0.385075106312E+02    0.11778E-05   -0.11976E-04 11188   0.116E-01    0.123E-02
DAV:   3    -0.385075097371E+02    0.89408E-06   -0.10098E-05 12780   0.362E-02    0.652E-03
DAV:   4    -0.385075091417E+02    0.59545E-06   -0.19773E-06 12964   0.203E-02    0.164E-03
DAV:   5    -0.385075092091E+02   -0.67449E-07   -0.67132E-07 10728   0.842E-03    0.633E-04
DAV:   6    -0.385075092166E+02   -0.74715E-08   -0.12234E-07 12936   0.420E-03    0.430E-04
DAV:   7    -0.385075092139E+02    0.26566E-08   -0.16730E-08  6760   0.256E-03
 284 F= -.38507509E+02 E0= -.38507249E+02  d E =-.375298E-04
 curvature:  -0.60 expect dE=-0.460E-04 dE for cont linesearch -0.175E-04
 ZBRENT: increasing intervall
 opt :   0.8301  next Energy=   -38.507545 (dE=-0.737E-04)
 bond charge predicted
       N       E                     dE             d eps       ncg     rms          rms(c)
DAV:   1    -0.385075567039E+02   -0.47487E-04   -0.10413E-02 10072   0.619E-01    0.500E-02
DAV:   2    -0.385075521113E+02    0.45926E-05   -0.47912E-04 11180   0.232E-01    0.247E-02
DAV:   3    -0.385075481407E+02    0.39705E-05   -0.40335E-05 12752   0.720E-02    0.130E-02
DAV:   4    -0.385075455661E+02    0.25746E-05   -0.79330E-06 13084   0.408E-02    0.331E-03
DAV:   5    -0.385075457283E+02   -0.16215E-06   -0.26802E-06 10728   0.167E-02    0.128E-03
DAV:   6    -0.385075457489E+02   -0.20575E-07   -0.49165E-07 13244   0.823E-03    0.862E-04
DAV:   7    -0.385075457418E+02    0.70531E-08   -0.73840E-08 11036   0.507E-03
 285 F= -.38507546E+02 E0= -.38507286E+02  d E =-.740577E-04
 curvature:  -1.25 expect dE=-0.676E-04 dE for cont linesearch -0.211E-04
 ZBRENT: increasing intervall
 opt :   1.7356  next Energy=   -38.507589 (dE=-0.117E-03)
 bond charge predicted
       N       E                     dE             d eps       ncg     rms          rms(c)
DAV:   1    -0.385076386158E+02   -0.92867E-04   -0.41643E-02 10072   0.124E+00    0.100E-01
DAV:   2    -0.385076207183E+02    0.17898E-04   -0.19138E-03 11180   0.464E-01    0.493E-02
DAV:   3    -0.385076039222E+02    0.16796E-04   -0.16095E-04 12656   0.145E-01    0.261E-02
DAV:   4    -0.385075932547E+02    0.10668E-04   -0.32169E-05 13084   0.822E-02    0.664E-03
DAV:   5    -0.385075936980E+02   -0.44339E-06   -0.10830E-05 10720   0.339E-02    0.255E-03
DAV:   6    -0.385075937678E+02   -0.69720E-07   -0.20163E-06 13172   0.166E-02    0.173E-03
DAV:   7    -0.385075937483E+02    0.19442E-07   -0.30748E-07 12240   0.103E-02    0.883E-04
DAV:   8    -0.385075937469E+02    0.14688E-08   -0.13701E-07 14580   0.304E-03    0.470E-04
DAV:   9    -0.385075937522E+02   -0.53433E-08   -0.34926E-08 10696   0.198E-03
 286 F= -.38507594E+02 E0= -.38507333E+02  d E =-.122068E-03
 curvature:  -2.55 expect dE=-0.141E-03 dE for cont linesearch -0.822E-05
 ZBRENT: increasing intervall
 opt :   3.5467  next Energy=   -38.507578 (dE=-0.106E-03)
 bond charge predicted
       N       E                     dE             d eps       ncg     rms          rms(c)
DAV:   1    -0.385077529001E+02   -0.15915E-03   -0.16647E-01 10072   0.247E+00    0.200E-01
DAV:   2    -0.385076819493E+02    0.70951E-04   -0.76420E-03 11188   0.927E-01    0.988E-02
DAV:   3    -0.385076122236E+02    0.69726E-04   -0.64045E-04 12508   0.290E-01    0.524E-02
DAV:   4    -0.385075688510E+02    0.43373E-04   -0.13163E-04 13212   0.166E-01    0.132E-02
DAV:   5    -0.385075702059E+02   -0.13549E-05   -0.43451E-05 10728   0.691E-02    0.508E-03
DAV:   6    -0.385075704713E+02   -0.26540E-06   -0.82393E-06 13192   0.328E-02    0.345E-03
DAV:   7    -0.385075704080E+02    0.63272E-07   -0.12290E-06 12240   0.207E-02    0.176E-03
DAV:   8    -0.385075704166E+02   -0.85902E-08   -0.55573E-07 16084   0.611E-03    0.942E-04
DAV:   9    -0.385075704232E+02   -0.66129E-08   -0.13977E-07 13400   0.385E-03    0.330E-04
DAV:  10    -0.385075704308E+02   -0.75825E-08   -0.31005E-08  8796   0.202E-03
 287 F= -.38507570E+02 E0= -.38507309E+02  d E =-.987467E-04
 curvature:   4.86 expect dE= 0.124E-02 dE for cont linesearch  0.485E-04
 ZBRENT: bracketing found
 ZBRENT: interpolating
 opt :   2.3923  next Energy=   -38.507604 (dE=-0.132E-03)
 bond charge predicted
       N       E                     dE             d eps       ncg     rms          rms(c)
DAV:   1    -0.385076758997E+02   -0.10548E-03   -0.67708E-02 10068   0.158E+00    0.128E-01
DAV:   2    -0.385076516188E+02    0.24281E-04   -0.31482E-03 11164   0.598E-01    0.630E-02
DAV:   3    -0.385076223616E+02    0.29257E-04   -0.26336E-04 12888   0.182E-01    0.333E-02
DAV:   4    -0.385076036445E+02    0.18717E-04   -0.50418E-05 12860   0.101E-01    0.839E-03
DAV:   5    -0.385076037690E+02   -0.12455E-06   -0.17304E-05 10740   0.415E-02    0.326E-03
DAV:   6    -0.385076038057E+02   -0.36716E-07   -0.30526E-06 13164   0.213E-02    0.220E-03
DAV:   7    -0.385076037958E+02    0.99226E-08   -0.48607E-07 12428   0.127E-02    0.112E-03
DAV:   8    -0.385076038125E+02   -0.16682E-07   -0.21077E-07 15736   0.371E-03    0.597E-04
DAV:   9    -0.385076038013E+02    0.11229E-07   -0.52563E-08 11560   0.232E-03    0.207E-04
DAV:  10    -0.385076038002E+02    0.10914E-08   -0.12984E-08  7504   0.129E-03
 288 F= -.38507604E+02 E0= -.38507343E+02  d E =-.132116E-03
 curvature:  -0.99 expect dE=-0.977E-04 dE for cont linesearch -0.776E-09
 trial: gam= 0.99697 g(F)=  0.651E-04 g(S)=  0.336E-04 ort =-0.469E-06 (trialstep = 0.379E+00)
 search vector abs. value=  0.376E-03
 bond charge predicted
       N       E                     dE             d eps       ncg     rms          rms(c)
DAV:   1    -0.385076550778E+02   -0.51277E-04   -0.84965E-03 10012   0.514E-01    0.423E-02
DAV:   2    -0.385076500557E+02    0.50221E-05   -0.21154E-04 12640   0.137E-01    0.257E-02
DAV:   3    -0.385076381223E+02    0.11933E-04   -0.16307E-05 13128   0.523E-02    0.783E-03
DAV:   4    -0.385076376522E+02    0.47012E-06   -0.76334E-06 11192   0.260E-02    0.210E-03
DAV:   5    -0.385076377462E+02   -0.94070E-07   -0.13546E-06 11960   0.114E-02    0.150E-03
DAV:   6    -0.385076377499E+02   -0.36889E-08   -0.14405E-07 11612   0.701E-03    0.875E-04
DAV:   7    -0.385076377696E+02   -0.19683E-07   -0.68438E-08 12268   0.276E-03    0.403E-04
DAV:   8    -0.385076377736E+02   -0.40054E-08   -0.11952E-08  5736   0.155E-03
 289 F= -.38507638E+02 E0= -.38507378E+02  d E =-.339734E-04
 ZBRENT: can't locate minimum, use default step
 trial-energy change:   -0.000034  1 .order   -0.000034   -0.000037   -0.000031
 step:   1.5146(harm=  2.2344)  dis= 0.00214  next Energy=   -38.507714 (dE=-0.110E-03)
 bond charge predicted
       N       E                     dE             d eps       ncg     rms          rms(c)
DAV:   1    -0.385078556894E+02   -0.21792E-03   -0.76480E-02 10012   0.154E+00    0.127E-01
DAV:   2    -0.385078103779E+02    0.45311E-04   -0.19045E-03 12644   0.413E-01    0.772E-02
DAV:   3    -0.385077037927E+02    0.10659E-03   -0.14774E-04 13108   0.159E-01    0.237E-02
DAV:   4    -0.385076993639E+02    0.44288E-05   -0.69172E-05 11200   0.800E-02    0.635E-03
DAV:   5    -0.385077001610E+02   -0.79708E-06   -0.12684E-05 11992   0.349E-02    0.454E-03
DAV:   6    -0.385077001407E+02    0.20265E-07   -0.13369E-06 11644   0.211E-02    0.265E-03
DAV:   7    -0.385077002336E+02   -0.92890E-07   -0.63458E-07 12436   0.842E-03    0.124E-03
DAV:   8    -0.385077002465E+02   -0.12900E-07   -0.13764E-07 13284   0.476E-03    0.593E-04
DAV:   9    -0.385077002597E+02   -0.13187E-07   -0.10088E-07 12312   0.345E-03    0.396E-04
DAV:  10    -0.385077002668E+02   -0.71423E-08   -0.16624E-08  5892   0.104E-03
 290 F= -.38507700E+02 E0= -.38507444E+02  d E =-.964667E-04
 curvature:  -3.63 expect dE=-0.154E-03 dE for cont linesearch -0.962E-05
 ZBRENT: increasing intervall
 opt :   3.7866  next Energy=   -38.507658 (dE=-0.545E-04)
 bond charge predicted
       N       E                     dE             d eps       ncg     rms          rms(c)
DAV:   1    -0.385082813328E+02   -0.58107E-03   -0.30600E-01 10012   0.309E+00    0.254E-01
DAV:   2    -0.385080976062E+02    0.18373E-03   -0.76010E-03 12520   0.829E-01    0.154E-01
DAV:   3    -0.385076741447E+02    0.42346E-03   -0.61569E-04 13204   0.320E-01    0.477E-02
DAV:   4    -0.385076561819E+02    0.17963E-04   -0.27792E-04 11184   0.160E-01    0.126E-02
DAV:   5    -0.385076592037E+02   -0.30218E-05   -0.49510E-05 12000   0.704E-02    0.900E-03
DAV:   6    -0.385076591071E+02    0.96615E-07   -0.53739E-06 11608   0.422E-02    0.524E-03
DAV:   7    -0.385076593824E+02   -0.27534E-06   -0.24384E-06 12452   0.175E-02    0.239E-03
DAV:   8    -0.385076594105E+02   -0.28122E-07   -0.53557E-07 13208   0.926E-03    0.113E-03
DAV:   9    -0.385076594462E+02   -0.35688E-07   -0.38837E-07 14800   0.676E-03    0.805E-04
DAV:  10    -0.385076594590E+02   -0.12809E-07   -0.69759E-08 12352   0.221E-03    0.404E-04
DAV:  11    -0.385076594773E+02   -0.18267E-07   -0.44999E-08  9412   0.139E-03    0.203E-04
DAV:  12    -0.385076594824E+02   -0.50768E-08   -0.44107E-09  5804   0.112E-03
 291 F= -.38507659E+02 E0= -.38507409E+02  d E =-.556822E-04
 curvature:  15.86 expect dE= 0.379E-02 dE for cont linesearch  0.190E-03
 ZBRENT: bracketing found
 ZBRENT: interpolating
 opt :   2.2413  next Energy=   -38.507712 (dE=-0.108E-03)
 bond charge predicted
       N       E                     dE             d eps       ncg     rms          rms(c)
DAV:   1    -0.385080002979E+02   -0.34082E-03   -0.14140E-01 10008   0.210E+00    0.173E-01
DAV:   2    -0.385079161410E+02    0.84157E-04   -0.35126E-03 12612   0.553E-01    0.105E-01
DAV:   3    -0.385077187713E+02    0.19737E-03   -0.27128E-04 13140   0.214E-01    0.313E-02
DAV:   4    -0.385077114796E+02    0.72917E-05   -0.12540E-04 10772   0.107E-01    0.853E-03
DAV:   5    -0.385077128088E+02   -0.13292E-05   -0.22956E-05 11888   0.453E-02    0.621E-03
DAV:   6    -0.385077126656E+02    0.14324E-06   -0.23034E-06 11684   0.289E-02    0.357E-03
DAV:   7    -0.385077126956E+02   -0.30058E-07   -0.11466E-06 12344   0.102E-02    0.162E-03
DAV:   8    -0.385077126728E+02    0.22804E-07   -0.23775E-07 13608   0.582E-03    0.787E-04
DAV:   9    -0.385077126652E+02    0.75943E-08   -0.17719E-07 13764   0.501E-03    0.528E-04
DAV:  10    -0.385077126544E+02    0.10818E-07   -0.29881E-08  9544   0.135E-03    0.307E-04
DAV:  11    -0.385077126469E+02    0.75197E-08   -0.27777E-08  8680   0.864E-04
 292 F= -.38507713E+02 E0= -.38507458E+02  d E =-.108847E-03
 curvature:  -0.96 expect dE=-0.663E-04 dE for cont linesearch -0.436E-11
 trial: gam= 0.69021 g(F)=  0.596E-04 g(S)=  0.974E-05 ort =-0.414E-07 (trialstep = 0.751E+00)
 search vector abs. value=  0.248E-03
 bond charge predicted
       N       E                     dE             d eps       ncg     rms          rms(c)
DAV:   1    -0.385078159263E+02   -0.10327E-03   -0.21088E-02  9968   0.841E-01    0.790E-02
DAV:   2    -0.385077893908E+02    0.26535E-04   -0.71097E-04 12160   0.281E-01    0.480E-02
DAV:   3    -0.385077547634E+02    0.34627E-04   -0.69103E-05 12740   0.100E-01    0.189E-02
DAV:   4    -0.385077494134E+02    0.53500E-05   -0.22659E-05 10880   0.491E-02    0.308E-03
DAV:   5    -0.385077498820E+02   -0.46860E-06   -0.64782E-06 11520   0.239E-02    0.238E-03
DAV:   6    -0.385077498916E+02   -0.96516E-08   -0.50347E-07 11712   0.141E-02    0.133E-03
DAV:   7    -0.385077499169E+02   -0.25317E-07   -0.16103E-07 13460   0.636E-03    0.475E-04
DAV:   8    -0.385077499254E+02   -0.84856E-08   -0.37013E-08  8652   0.235E-03
 293 F= -.38507750E+02 E0= -.38507498E+02  d E =-.372785E-04
 trial-energy change:   -0.000037  1 .order   -0.000039   -0.000052   -0.000026
 step:   1.4816(harm=  1.4816)  dis= 0.00168  next Energy=   -38.507764 (dE=-0.513E-04)
 bond charge predicted
       N       E                     dE             d eps       ncg     rms          rms(c)
DAV:   1    -0.385078245828E+02   -0.74666E-04   -0.19933E-02  9968   0.818E-01    0.768E-02
DAV:   2    -0.385077994718E+02    0.25111E-04   -0.67122E-04 12168   0.273E-01    0.466E-02
DAV:   3    -0.385077667381E+02    0.32734E-04   -0.65368E-05 12716   0.973E-02    0.183E-02
DAV:   4    -0.385077616979E+02    0.50402E-05   -0.21414E-05 10896   0.478E-02    0.300E-03
DAV:   5    -0.385077621433E+02   -0.44532E-06   -0.61366E-06 11548   0.232E-02    0.232E-03
DAV:   6    -0.385077621532E+02   -0.99335E-08   -0.47509E-07 11728   0.138E-02    0.130E-03
DAV:   7    -0.385077621786E+02   -0.25439E-07   -0.15500E-07 13584   0.619E-03    0.467E-04
DAV:   8    -0.385077621867E+02   -0.80272E-08   -0.34666E-08  8356   0.230E-03
 294 F= -.38507762E+02 E0= -.38507513E+02  d E =-.495398E-04
 curvature:  -2.66 expect dE=-0.125E-03 dE for cont linesearch -0.247E-10
 trial: gam= 0.67996 g(F)=  0.416E-04 g(S)=  0.565E-05 ort = 0.481E-07 (trialstep = 0.897E+00)
 search vector abs. value=  0.162E-03
 bond charge predicted
       N       E                     dE             d eps       ncg     rms          rms(c)
DAV:   1    -0.385077635606E+02   -0.13820E-05   -0.19830E-02  9920   0.782E-01    0.792E-02
DAV:   2    -0.385077325940E+02    0.30967E-04   -0.69441E-04 11192   0.263E-01    0.478E-02
DAV:   3    -0.385076988065E+02    0.33788E-04   -0.74616E-05 14180   0.993E-02    0.199E-02
DAV:   4    -0.385076941819E+02    0.46245E-05   -0.23608E-05 11184   0.483E-02    0.498E-03
DAV:   5    -0.385076943280E+02   -0.14603E-06   -0.55909E-06 11524   0.240E-02    0.243E-03
DAV:   6    -0.385076943267E+02    0.13260E-08   -0.11195E-06 12964   0.173E-02    0.113E-03
DAV:   7    -0.385076943443E+02   -0.17661E-07   -0.20264E-07 12396   0.827E-03    0.566E-04
DAV:   8    -0.385076943630E+02   -0.18681E-07   -0.47124E-08 10916   0.217E-03    0.243E-04
DAV:   9    -0.385076943673E+02   -0.42746E-08   -0.14103E-08  7076   0.130E-03
 295 F= -.38507694E+02 E0= -.38507448E+02  d E =0.678194E-04
 trial-energy change:    0.000068  1 .order    0.000040   -0.000042    0.000123
 step:   0.1234(harm=  0.2307)  dis= 0.00014  next Energy=   -38.507765 (dE=-0.284E-05)
 bond charge predicted
       N       E                     dE             d eps       ncg     rms          rms(c)
DAV:   1    -0.385078179775E+02   -0.12361E-03   -0.14747E-02  9916   0.674E-01    0.684E-02
DAV:   2    -0.385077937734E+02    0.24204E-04   -0.51564E-04 11160   0.226E-01    0.413E-02
DAV:   3    -0.385077693958E+02    0.24378E-04   -0.55398E-05 14152   0.859E-02    0.172E-02
DAV:   4    -0.385077662396E+02    0.31562E-05   -0.17524E-05 11132   0.422E-02    0.432E-03
DAV:   5    -0.385077664542E+02   -0.21459E-06   -0.42039E-06 11524   0.212E-02    0.210E-03
DAV:   6    -0.385077664794E+02   -0.25201E-07   -0.86353E-07 12960   0.156E-02    0.100E-03
DAV:   7    -0.385077664840E+02   -0.46020E-08   -0.16108E-07 12472   0.729E-03    0.495E-04
DAV:   8    -0.385077664767E+02    0.73260E-08   -0.32088E-08  9248   0.188E-03
 296 F= -.38507766E+02 E0= -.38507517E+02  d E =-.428999E-05
 curvature:  -0.39 expect dE=-0.161E-04 dE for cont linesearch -0.119E-05
 ZBRENT: interpolating
 opt :   0.2322  next Energy=   -38.507768 (dE=-0.551E-05)
 bond charge predicted
       N       E                     dE             d eps       ncg     rms          rms(c)
DAV:   1    -0.385077687038E+02   -0.22198E-05   -0.29172E-04  9916   0.948E-02    0.964E-03
DAV:   2    -0.385077683058E+02    0.39797E-06   -0.10207E-05 11156   0.320E-02    0.582E-03
DAV:   3    -0.385077677573E+02    0.54854E-06   -0.11100E-06 14316   0.123E-02    0.241E-03
DAV:   4    -0.385077676686E+02    0.88640E-07   -0.34956E-07 11136   0.591E-03    0.609E-04
DAV:   5    -0.385077676637E+02    0.49040E-08   -0.83368E-08 10888   0.284E-03
 297 F= -.38507768E+02 E0= -.38507519E+02  d E =-.547708E-05
 curvature:  -0.39 expect dE=-0.441E-04 dE for cont linesearch -0.189E-08
 trial: gam= 2.38025 g(F)=  0.986E-04 g(S)=  0.131E-04 ort =-0.882E-06 (trialstep = 0.121E+00)
 search vector abs. value=  0.103E-02
 bond charge predicted
       N       E                     dE             d eps       ncg     rms          rms(c)
DAV:   1    -0.385077623092E+02    0.53594E-05   -0.21213E-03  9924   0.276E-01    0.297E-02
DAV:   2    -0.385077571691E+02    0.51401E-05   -0.96643E-05 11304   0.115E-01    0.169E-02
DAV:   3    -0.385077532538E+02    0.39153E-05   -0.10353E-05 12216   0.374E-02    0.784E-03
DAV:   4    -0.385077521758E+02    0.10780E-05   -0.29599E-06 10880   0.207E-02    0.118E-03
DAV:   5    -0.385077522437E+02   -0.67875E-07   -0.10401E-06 11016   0.993E-03    0.835E-04
DAV:   6    -0.385077522476E+02   -0.38663E-08   -0.98375E-08 12332   0.542E-03
 298 F= -.38507752E+02 E0= -.38507504E+02  d E =0.154162E-04
 ZBRENT: can't locate minimum, use default step
 trial-energy change:    0.000015  1 .order   -0.000012   -0.000013   -0.000011
 step:   0.4830(harm=  0.8305)  dis= 0.00107  next Energy=   -38.507813 (dE=-0.455E-04)
 bond charge predicted
       N       E                     dE             d eps       ncg     rms          rms(c)
DAV:   1    -0.385078687987E+02   -0.11655E-03   -0.19086E-02  9924   0.829E-01    0.889E-02
DAV:   2    -0.385078217505E+02    0.47048E-04   -0.87144E-04 11308   0.348E-01    0.506E-02
DAV:   3    -0.385077877716E+02    0.33979E-04   -0.93575E-05 12204   0.115E-01    0.235E-02
DAV:   4    -0.385077785893E+02    0.91823E-05   -0.27161E-05 10868   0.630E-02    0.353E-03
DAV:   5    -0.385077793070E+02   -0.71766E-06   -0.95014E-06 11040   0.300E-02    0.249E-03
DAV:   6    -0.385077793395E+02   -0.32508E-07   -0.92164E-07 13352   0.163E-02    0.130E-03
DAV:   7    -0.385077793609E+02   -0.21430E-07   -0.19765E-07 10912   0.738E-03    0.438E-04
DAV:   8    -0.385077793746E+02   -0.13743E-07   -0.79005E-08 10564   0.212E-03    0.189E-04
DAV:   9    -0.385077793775E+02   -0.28531E-08   -0.57772E-09  5616   0.858E-04
 299 F= -.38507779E+02 E0= -.38507532E+02  d E =-.117138E-04
 curvature:  -2.95 expect dE=-0.137E-03 dE for cont linesearch -0.834E-05
 ZBRENT: increasing intervall
 opt :   1.2075  next Energy=   -38.507789 (dE=-0.218E-04)
 bond charge predicted
       N       E                     dE             d eps       ncg     rms          rms(c)
DAV:   1    -0.385081452670E+02   -0.36589E-03   -0.76298E-02  9924   0.166E+00    0.178E-01
DAV:   2    -0.385079573885E+02    0.18788E-03   -0.34850E-03 11308   0.696E-01    0.101E-01
DAV:   3    -0.385078230234E+02    0.13437E-03   -0.37357E-04 12228   0.228E-01    0.470E-02
DAV:   4    -0.385077867402E+02    0.36283E-04   -0.10763E-04 10852   0.125E-01    0.704E-03
DAV:   5    -0.385077896755E+02   -0.29353E-05   -0.37651E-05 11048   0.595E-02    0.496E-03
DAV:   6    -0.385077897970E+02   -0.12158E-06   -0.35957E-06 13324   0.322E-02    0.257E-03
DAV:   7    -0.385077898665E+02   -0.69474E-07   -0.76413E-07 10896   0.148E-02    0.866E-04
DAV:   8    -0.385077899126E+02   -0.46106E-07   -0.32035E-07 13876   0.417E-03    0.402E-04
DAV:   9    -0.385077899166E+02   -0.39836E-08   -0.16801E-08  6060   0.154E-03
 300 F= -.38507790E+02 E0= -.38507545E+02  d E =-.222529E-04
 curvature:  -3.57 expect dE=-0.375E-03 dE for cont linesearch -0.355E-05
 ZBRENT: bracketing found
 ZBRENT: interpolating
 opt :   0.9377  next Energy=   -38.507794 (dE=-0.266E-04)
 writing wavefunctions
Tue Jan  4 01:27:03 CST 2022
