Mon Jan  3 23:41:11 CST 2022
 running on   48 total cores
 distrk:  each k-point on   48 cores,    1 groups
 distr:  one band on   24 cores,    2 groups
 using from now: INCAR     
 vasp.5.3.5 31Mar14 (build Jan 11 2016 19:50:55) complex                        
  
 POSCAR found type information on POSCAR  Zn Ga N  O 
 POSCAR found :  4 types and       8 ions
 scaLAPACK will be used

 ----------------------------------------------------------------------------- 
|                                                                             |
|           W    W    AA    RRRRR   N    N  II  N    N   GGGG   !!!           |
|           W    W   A  A   R    R  NN   N  II  NN   N  G    G  !!!           |
|           W    W  A    A  R    R  N N  N  II  N N  N  G       !!!           |
|           W WW W  AAAAAA  RRRRR   N  N N  II  N  N N  G  GGG   !            |
|           WW  WW  A    A  R   R   N   NN  II  N   NN  G    G                |
|           W    W  A    A  R    R  N    N  II  N    N   GGGG   !!!           |
|                                                                             |
|      For optimal performance we recommend to set                            |
|        NCORE= 4 - approx SQRT( number of cores)                             |
|      NCORE specifies how many cores store one orbital (NPAR=cpu/NCORE).     |
|      This setting can  greatly improve the performance of VASP for DFT.     |
|      The default, NPAR=number of cores might be grossly inefficient         |
|      on modern multi-core architectures or massively parallel machines.     |
|      Do your own testing !!!!                                               |
|      Unfortunately you need to use the default for GW and RPA calculations. |
|      (for HF NCORE is supported but not extensively tested yet)             |
|                                                                             |
 ----------------------------------------------------------------------------- 

 LDA part: xc-table for Pade appr. of Perdew
 POSCAR, INCAR and KPOINTS ok, starting setup
 WARNING: small aliasing (wrap around) errors must be expected
 FFT: planning ...
 WAVECAR not read
 entering main loop
       N       E                     dE             d eps       ncg     rms          rms(c)
DAV:   1     0.901831206806E+03    0.90183E+03   -0.42258E+04 10180   0.321E+03
DAV:   2     0.145626435669E+03   -0.75620E+03   -0.72716E+03  9976   0.771E+02
DAV:   3    -0.279998305021E+02   -0.17363E+03   -0.16905E+03 11436   0.263E+02
DAV:   4    -0.432291473801E+02   -0.15229E+02   -0.15045E+02 11776   0.786E+01
DAV:   5    -0.437392970924E+02   -0.51015E+00   -0.50799E+00 12196   0.138E+01    0.146E+01
DAV:   6    -0.379549277061E+02    0.57844E+01   -0.23195E+01 18652   0.662E+01    0.709E+00
DAV:   7    -0.382631608098E+02   -0.30823E+00   -0.55103E+00 10588   0.172E+01    0.457E+00
DAV:   8    -0.382308668778E+02    0.32294E-01   -0.13397E+00 15608   0.867E+00    0.202E+00
DAV:   9    -0.381771946556E+02    0.53672E-01   -0.22133E-01 13456   0.548E+00    0.732E-01
DAV:  10    -0.381734706207E+02    0.37240E-02   -0.84580E-02 13832   0.226E+00    0.227E-01
DAV:  11    -0.381744501050E+02   -0.97948E-03   -0.10232E-02 12348   0.963E-01    0.125E-01
DAV:  12    -0.381749638151E+02   -0.51371E-03   -0.16429E-03 11852   0.522E-01    0.565E-02
DAV:  13    -0.381750329289E+02   -0.69114E-04   -0.43535E-04 12036   0.267E-01    0.226E-02
DAV:  14    -0.381750678060E+02   -0.34877E-04   -0.13586E-04 11152   0.984E-02    0.179E-02
DAV:  15    -0.381750751349E+02   -0.73289E-05   -0.34784E-05 13296   0.619E-02    0.739E-03
DAV:  16    -0.381750785342E+02   -0.33993E-05   -0.13393E-05 12568   0.547E-02    0.598E-03
DAV:  17    -0.381750788020E+02   -0.26775E-06   -0.64296E-06 13416   0.276E-02    0.144E-03
DAV:  18    -0.381750789838E+02   -0.18188E-06   -0.10730E-06 12364   0.104E-02    0.873E-04
DAV:  19    -0.381750789889E+02   -0.50763E-08   -0.17062E-07 11240   0.493E-03    0.406E-04
DAV:  20    -0.381750789779E+02    0.11007E-07   -0.42954E-08  9820   0.168E-03    0.185E-04
DAV:  21    -0.381750789832E+02   -0.53192E-08   -0.59248E-09  6452   0.132E-03
   1 F= -.38175079E+02 E0= -.38173322E+02  d E =-.381751E+02
 curvature:   0.00 expect dE= 0.000E+00 dE for cont linesearch  0.000E+00
 trial: gam= 0.00000 g(F)=  0.428E-04 g(S)=  0.215E-02 ort = 0.000E+00 (trialstep = 0.100E+01)
 search vector abs. value=  0.219E-02
 bond charge predicted
       N       E                     dE             d eps       ncg     rms          rms(c)
DAV:   1    -0.381913259656E+02   -0.16247E-01   -0.29316E-01 12760   0.619E+00    0.869E-01
DAV:   2    -0.381792196954E+02    0.12106E-01   -0.55388E-02 12348   0.346E+00    0.360E-01
DAV:   3    -0.381772292601E+02    0.19904E-02   -0.51475E-03 14232   0.887E-01    0.167E-01
DAV:   4    -0.381765848968E+02    0.64436E-03   -0.84464E-04 13424   0.573E-01    0.472E-02
DAV:   5    -0.381765649590E+02    0.19938E-04   -0.45418E-04 10784   0.236E-01    0.156E-02
DAV:   6    -0.381765661596E+02   -0.12006E-05   -0.63780E-05 12972   0.819E-02    0.855E-03
DAV:   7    -0.381765660357E+02    0.12391E-06   -0.11560E-05 12728   0.565E-02    0.542E-03
DAV:   8    -0.381765662064E+02   -0.17064E-06   -0.26879E-06 11456   0.179E-02    0.238E-03
DAV:   9    -0.381765662992E+02   -0.92820E-07   -0.92577E-07 12872   0.749E-03    0.109E-03
DAV:  10    -0.381765663369E+02   -0.37698E-07   -0.14707E-07 12328   0.606E-03    0.522E-04
DAV:  11    -0.381765663565E+02   -0.19559E-07   -0.33186E-08  8884   0.328E-03    0.228E-04
DAV:  12    -0.381765663646E+02   -0.81745E-08   -0.17538E-08  7400   0.193E-03
   2 F= -.38176566E+02 E0= -.38174811E+02  d E =-.148738E-02
 trial-energy change:   -0.001487  1 .order   -0.001492   -0.002191   -0.000793
 step:   1.5839(harm=  1.5668)  dis= 0.00090  next Energy=   -38.176797 (dE=-0.172E-02)
 bond charge predicted
       N       E                     dE             d eps       ncg     rms          rms(c)
DAV:   1    -0.381818088895E+02   -0.52425E-02   -0.99428E-02 12784   0.359E+00    0.506E-01
DAV:   2    -0.381776952040E+02    0.41137E-02   -0.18837E-02 12348   0.202E+00    0.209E-01
DAV:   3    -0.381770193311E+02    0.67587E-03   -0.17338E-03 14240   0.515E-01    0.972E-02
DAV:   4    -0.381768000561E+02    0.21927E-03   -0.28756E-04 13572   0.324E-01    0.275E-02
DAV:   5    -0.381767927459E+02    0.73102E-05   -0.15164E-04 10796   0.135E-01    0.908E-03
DAV:   6    -0.381767930604E+02   -0.31450E-06   -0.20904E-05 12956   0.471E-02    0.497E-03
DAV:   7    -0.381767930488E+02    0.11688E-07   -0.39129E-06 12696   0.327E-02    0.316E-03
DAV:   8    -0.381767931287E+02   -0.79916E-07   -0.89871E-07 11576   0.105E-02    0.139E-03
DAV:   9    -0.381767931731E+02   -0.44432E-07   -0.31977E-07 12888   0.417E-03    0.639E-04
DAV:  10    -0.381767931935E+02   -0.20445E-07   -0.48718E-08 11456   0.334E-03    0.299E-04
DAV:  11    -0.381767932041E+02   -0.10566E-07   -0.98185E-09  6336   0.179E-03    0.126E-04
DAV:  12    -0.381767932078E+02   -0.36489E-08   -0.66445E-09  5904   0.122E-03
   3 F= -.38176793E+02 E0= -.38175039E+02  d E =-.171422E-02
 curvature:  -0.78 expect dE=-0.418E-02 dE for cont linesearch -0.324E-07
 trial: gam= 2.44219 g(F)=  0.355E-02 g(S)=  0.180E-02 ort =-0.953E-05 (trialstep = 0.133E+00)
 search vector abs. value=  0.184E-01
 bond charge predicted
       N       E                     dE             d eps       ncg     rms          rms(c)
DAV:   1    -0.381783951981E+02   -0.16020E-02   -0.41511E-02 10724   0.159E+00    0.247E-01
DAV:   2    -0.381776061003E+02    0.78910E-03   -0.49874E-03 11644   0.986E-01    0.122E-01
DAV:   3    -0.381773819865E+02    0.22411E-03   -0.55489E-04 13208   0.337E-01    0.562E-02
DAV:   4    -0.381773228062E+02    0.59180E-04   -0.12384E-04 12760   0.206E-01    0.160E-02
DAV:   5    -0.381773226415E+02    0.16473E-06   -0.53882E-05 10732   0.759E-02    0.536E-03
DAV:   6    -0.381773229198E+02   -0.27833E-06   -0.67483E-06 12508   0.273E-02    0.313E-03
DAV:   7    -0.381773229408E+02   -0.20935E-07   -0.10800E-06 12968   0.215E-02    0.163E-03
DAV:   8    -0.381773229743E+02   -0.33559E-07   -0.37853E-07 14584   0.787E-03    0.656E-04
DAV:   9    -0.381773229942E+02   -0.19866E-07   -0.87473E-08 11944   0.374E-03    0.419E-04
DAV:  10    -0.381773230000E+02   -0.58180E-08   -0.24881E-08  7436   0.191E-03
   4 F= -.38177323E+02 E0= -.38175597E+02  d E =-.529792E-03
 trial-energy change:   -0.000530  1 .order   -0.000528   -0.000709   -0.000347
 step:   0.2526(harm=  0.2608)  dis= 0.00131  next Energy=   -38.177480 (dE=-0.687E-03)
 bond charge predicted
       N       E                     dE             d eps       ncg     rms          rms(c)
DAV:   1    -0.381783562994E+02   -0.10333E-02   -0.33255E-02 10716   0.143E+00    0.221E-01
DAV:   2    -0.381777248291E+02    0.63147E-03   -0.39907E-03 11644   0.882E-01    0.109E-01
DAV:   3    -0.381775453942E+02    0.17943E-03   -0.44434E-04 13208   0.302E-01    0.503E-02
DAV:   4    -0.381774980398E+02    0.47354E-04   -0.99283E-05 12776   0.184E-01    0.143E-02
DAV:   5    -0.381774978770E+02    0.16277E-06   -0.43111E-05 10728   0.680E-02    0.480E-03
DAV:   6    -0.381774980986E+02   -0.22163E-06   -0.54139E-06 12508   0.244E-02    0.280E-03
DAV:   7    -0.381774981171E+02   -0.18511E-07   -0.86337E-07 12968   0.192E-02    0.146E-03
DAV:   8    -0.381774981460E+02   -0.28820E-07   -0.30376E-07 14568   0.698E-03    0.588E-04
DAV:   9    -0.381774981630E+02   -0.17086E-07   -0.69618E-08 11552   0.332E-03    0.375E-04
DAV:  10    -0.381774981683E+02   -0.52310E-08   -0.20175E-08  6924   0.171E-03
   5 F= -.38177498E+02 E0= -.38175796E+02  d E =-.704961E-03
 curvature:  -0.45 expect dE=-0.802E-03 dE for cont linesearch -0.534E-06
 trial: gam= 0.30357 g(F)=  0.123E-02 g(S)=  0.554E-03 ort = 0.148E-03 (trialstep = 0.157E+00)
 search vector abs. value=  0.357E-02
 bond charge predicted
       N       E                     dE             d eps       ncg     rms          rms(c)
DAV:   1    -0.381778690015E+02   -0.37084E-03   -0.11484E-02 10160   0.646E-01    0.821E-02
DAV:   2    -0.381778158697E+02    0.53132E-04   -0.47708E-04 11620   0.290E-01    0.494E-02
DAV:   3    -0.381777721684E+02    0.43701E-04   -0.82420E-05 12400   0.202E-01    0.145E-02
DAV:   4    -0.381777706580E+02    0.15104E-05   -0.28486E-05 11328   0.103E-01    0.363E-03
DAV:   5    -0.381777713596E+02   -0.70156E-06   -0.91724E-06 11364   0.282E-02    0.279E-03
DAV:   6    -0.381777713290E+02    0.30596E-07   -0.70926E-07 12452   0.203E-02    0.130E-03
DAV:   7    -0.381777713270E+02    0.20186E-08   -0.21322E-07 14972   0.747E-03    0.395E-04
DAV:   8    -0.381777713251E+02    0.18504E-08   -0.47609E-08  9052   0.412E-03
   6 F= -.38177771E+02 E0= -.38176068E+02  d E =-.273157E-03
 ZBRENT: can't locate minimum, use default step
 trial-energy change:   -0.000273  1 .order   -0.000276   -0.000288   -0.000263
 step:   0.6285(harm=  1.8072)  dis= 0.00170  next Energy=   -38.179155 (dE=-0.166E-02)
 bond charge predicted
       N       E                     dE             d eps       ncg     rms          rms(c)
DAV:   1    -0.381793305548E+02   -0.15592E-02   -0.10329E-01 10144   0.194E+00    0.246E-01
DAV:   2    -0.381788529287E+02    0.47763E-03   -0.42871E-03 11612   0.873E-01    0.148E-01
DAV:   3    -0.381784566279E+02    0.39630E-03   -0.74318E-04 12400   0.611E-01    0.435E-02
DAV:   4    -0.381784430560E+02    0.13572E-04   -0.25524E-04 11392   0.314E-01    0.109E-02
DAV:   5    -0.381784499451E+02   -0.68890E-05   -0.84562E-05 11432   0.843E-02    0.840E-03
DAV:   6    -0.381784496797E+02    0.26538E-06   -0.61639E-06 12808   0.608E-02    0.390E-03
DAV:   7    -0.381784497455E+02   -0.65781E-07   -0.18662E-06 15760   0.240E-02    0.119E-03
DAV:   8    -0.381784497554E+02   -0.99794E-08   -0.47071E-07 12280   0.127E-02    0.688E-04
DAV:   9    -0.381784497468E+02    0.85925E-08   -0.80336E-08 11032   0.309E-03
   7 F= -.38178450E+02 E0= -.38176743E+02  d E =-.951579E-03
 curvature:  -0.86 expect dE=-0.677E-03 dE for cont linesearch -0.345E-03
 ZBRENT: increasing intervall
 opt :   1.5712  next Energy=   -38.179127 (dE=-0.163E-02)
 bond charge predicted
       N       E                     dE             d eps       ncg     rms          rms(c)
DAV:   1    -0.381826390431E+02   -0.41893E-02   -0.41260E-01 10148   0.387E+00    0.493E-01
DAV:   2    -0.381807273827E+02    0.19117E-02   -0.17113E-02 11628   0.175E+00    0.296E-01
DAV:   3    -0.381791426482E+02    0.15847E-02   -0.29911E-03 12504   0.124E+00    0.870E-02
DAV:   4    -0.381790874927E+02    0.55155E-04   -0.10172E-03 11668   0.646E-01    0.218E-02
DAV:   5    -0.381791165144E+02   -0.29022E-04   -0.34870E-04 11660   0.167E-01    0.168E-02
DAV:   6    -0.381791154199E+02    0.10945E-05   -0.21925E-05 13852   0.111E-01    0.777E-03
DAV:   7    -0.381791155646E+02   -0.14473E-06   -0.59249E-06 14272   0.575E-02    0.236E-03
DAV:   8    -0.381791157224E+02   -0.15777E-06   -0.26754E-06 12352   0.267E-02    0.135E-03
DAV:   9    -0.381791157325E+02   -0.10147E-07   -0.46181E-07 12776   0.650E-03    0.848E-04
DAV:  10    -0.381791157226E+02    0.98771E-08   -0.51378E-08  9852   0.412E-03
   8 F= -.38179116E+02 E0= -.38177400E+02  d E =-.161755E-02
 curvature:  -1.69 expect dE=-0.110E-02 dE for cont linesearch -0.281E-04
 ZBRENT: extrapolating
 opt :   1.8121  next Energy=   -38.179145 (dE=-0.165E-02)
 bond charge predicted
       N       E                     dE             d eps       ncg     rms          rms(c)
DAV:   1    -0.381793727925E+02   -0.25706E-03   -0.26925E-02 10164   0.990E-01    0.126E-01
DAV:   2    -0.381792487079E+02    0.12408E-03   -0.11281E-03 11620   0.450E-01    0.756E-02
DAV:   3    -0.381791463521E+02    0.10236E-03   -0.19591E-04 12448   0.322E-01    0.224E-02
DAV:   4    -0.381791426041E+02    0.37480E-05   -0.67734E-05 11652   0.163E-01    0.558E-03
DAV:   5    -0.381791443853E+02   -0.17812E-05   -0.22405E-05 11876   0.429E-02    0.428E-03
DAV:   6    -0.381791443045E+02    0.80782E-07   -0.14283E-06 13748   0.280E-02    0.197E-03
DAV:   7    -0.381791442978E+02    0.67234E-08   -0.39456E-07 14816   0.144E-02    0.599E-04
DAV:   8    -0.381791443011E+02   -0.33738E-08   -0.15447E-07 12112   0.655E-03    0.347E-04
DAV:   9    -0.381791442953E+02    0.58226E-08   -0.23620E-08  7036   0.158E-03
   9 F= -.38179144E+02 E0= -.38177426E+02  d E =-.164613E-02
 curvature:  -1.77 expect dE=-0.157E-02 dE for cont linesearch -0.456E-11
 trial: gam= 0.60056 g(F)=  0.800E-03 g(S)=  0.868E-04 ort =-0.960E-07 (trialstep = 0.488E+00)
 search vector abs. value=  0.217E-02
 bond charge predicted
       N       E                     dE             d eps       ncg     rms          rms(c)
DAV:   1    -0.381798998085E+02   -0.75551E-03   -0.80952E-02 10140   0.165E+00    0.179E-01
DAV:   2    -0.381797114196E+02    0.18839E-03   -0.29767E-03 11172   0.714E-01    0.106E-01
DAV:   3    -0.381795211001E+02    0.19032E-03   -0.56206E-04 12448   0.578E-01    0.370E-02
DAV:   4    -0.381795085998E+02    0.12500E-04   -0.15313E-04 11120   0.307E-01    0.874E-03
DAV:   5    -0.381795145830E+02   -0.59832E-05   -0.71379E-05 14100   0.572E-02    0.551E-03
DAV:   6    -0.381795143672E+02    0.21581E-06   -0.25320E-06 11544   0.179E-02    0.372E-03
DAV:   7    -0.381795143311E+02    0.36061E-07   -0.94841E-07 15264   0.201E-02    0.104E-03
DAV:   8    -0.381795143454E+02   -0.14276E-07   -0.30340E-07 14208   0.104E-02    0.573E-04
DAV:   9    -0.381795143553E+02   -0.98858E-08   -0.10459E-07 10720   0.437E-03    0.351E-04
DAV:  10    -0.381795143563E+02   -0.10223E-08   -0.13730E-08  6028   0.307E-03
  10 F= -.38179514E+02 E0= -.38177807E+02  d E =-.370061E-03
 trial-energy change:   -0.000370  1 .order   -0.000369   -0.000433   -0.000305
 step:   1.4677(harm=  1.6514)  dis= 0.00390  next Energy=   -38.179831 (dE=-0.687E-03)
 bond charge predicted
       N       E                     dE             d eps       ncg     rms          rms(c)
DAV:   1    -0.381814360147E+02   -0.19217E-02   -0.32603E-01 10140   0.331E+00    0.358E-01
DAV:   2    -0.381806797918E+02    0.75622E-03   -0.11992E-02 11164   0.144E+00    0.213E-01
DAV:   3    -0.381799147032E+02    0.76509E-03   -0.22790E-03 12456   0.116E+00    0.744E-02
DAV:   4    -0.381798640537E+02    0.50650E-04   -0.61865E-04 11288   0.620E-01    0.176E-02
DAV:   5    -0.381798878451E+02   -0.23791E-04   -0.28604E-04 14088   0.116E-01    0.110E-02
DAV:   6    -0.381798872885E+02    0.55664E-06   -0.12626E-05 11476   0.371E-02    0.755E-03
DAV:   7    -0.381798870424E+02    0.24603E-06   -0.36788E-06 15556   0.491E-02    0.205E-03
DAV:   8    -0.381798871086E+02   -0.66110E-07   -0.11977E-06 13676   0.186E-02    0.114E-03
DAV:   9    -0.381798871313E+02   -0.22764E-07   -0.29786E-07 11776   0.879E-03    0.691E-04
DAV:  10    -0.381798871356E+02   -0.42905E-08   -0.59481E-08 11532   0.563E-03
  11 F= -.38179887E+02 E0= -.38178202E+02  d E =-.742840E-03
 curvature:  -1.97 expect dE=-0.266E-02 dE for cont linesearch -0.834E-05
 trial: gam= 1.39828 g(F)=  0.108E-02 g(S)=  0.263E-03 ort = 0.958E-04 (trialstep = 0.254E+00)
 search vector abs. value=  0.586E-02
 bond charge predicted
       N       E                     dE             d eps       ncg     rms          rms(c)
DAV:   1    -0.381802538933E+02   -0.36676E-03   -0.68578E-02 10108   0.165E+00    0.155E-01
DAV:   2    -0.381802148024E+02    0.39091E-04   -0.38579E-03 11268   0.705E-01    0.816E-02
DAV:   3    -0.381801360341E+02    0.78768E-04   -0.33001E-04 12176   0.243E-01    0.401E-02
DAV:   4    -0.381801085137E+02    0.27520E-04   -0.74540E-05 12328   0.169E-01    0.868E-03
DAV:   5    -0.381801099857E+02   -0.14721E-05   -0.27575E-05 10816   0.751E-02    0.419E-03
DAV:   6    -0.381801103763E+02   -0.39053E-06   -0.58868E-06 12356   0.356E-02    0.285E-03
DAV:   7    -0.381801104286E+02   -0.52351E-07   -0.91957E-07 12200   0.213E-02    0.118E-03
DAV:   8    -0.381801104853E+02   -0.56690E-07   -0.35672E-07 14868   0.656E-03    0.429E-04
DAV:   9    -0.381801104865E+02   -0.11487E-08   -0.48164E-08  9068   0.378E-03
  12 F= -.38180110E+02 E0= -.38178408E+02  d E =-.223351E-03
 trial-energy change:   -0.000223  1 .order   -0.000223   -0.000375   -0.000071
 step:   0.3131(harm=  0.3131)  dis= 0.00173  next Energy=   -38.180119 (dE=-0.232E-03)
 bond charge predicted
       N       E                     dE             d eps       ncg     rms          rms(c)
DAV:   1    -0.381801119532E+02   -0.14679E-05   -0.37679E-03 10116   0.386E-01    0.362E-02
DAV:   2    -0.381801098678E+02    0.20854E-05   -0.21118E-04 11276   0.164E-01    0.191E-02
DAV:   3    -0.381801053260E+02    0.45418E-05   -0.18005E-05 12228   0.555E-02    0.938E-03
DAV:   4    -0.381801037402E+02    0.15858E-05   -0.40264E-06 12360   0.386E-02    0.201E-03
DAV:   5    -0.381801037995E+02   -0.59350E-07   -0.14675E-06 10776   0.174E-02    0.979E-04
DAV:   6    -0.381801038215E+02   -0.21962E-07   -0.31281E-07 12172   0.823E-03    0.665E-04
DAV:   7    -0.381801038295E+02   -0.79817E-08   -0.46188E-08  8948   0.493E-03
  13 F= -.38180104E+02 E0= -.38178397E+02  d E =-.216694E-03
 curvature:  -0.62 expect dE=-0.585E-03 dE for cont linesearch -0.120E-08
 trial: gam= 0.83121 g(F)=  0.874E-03 g(S)=  0.692E-04 ort =-0.337E-05 (trialstep = 0.266E+00)
 search vector abs. value=  0.499E-02
 bond charge predicted
       N       E                     dE             d eps       ncg     rms          rms(c)
DAV:   1    -0.381803865379E+02   -0.28272E-03   -0.70791E-02  9924   0.153E+00    0.127E-01
DAV:   2    -0.381803930102E+02   -0.64722E-05   -0.28491E-03 11300   0.540E-01    0.676E-02
DAV:   3    -0.381803376052E+02    0.55405E-04   -0.21053E-04 12028   0.201E-01    0.323E-02
DAV:   4    -0.381803199328E+02    0.17672E-04   -0.58241E-05 12292   0.145E-01    0.713E-03
DAV:   5    -0.381803209327E+02   -0.99992E-06   -0.20313E-05 10952   0.648E-02    0.350E-03
DAV:   6    -0.381803211935E+02   -0.26083E-06   -0.42868E-06 12300   0.293E-02    0.243E-03
DAV:   7    -0.381803212220E+02   -0.28528E-07   -0.66626E-07 12444   0.188E-02    0.122E-03
DAV:   8    -0.381803212725E+02   -0.50441E-07   -0.28728E-07 14028   0.469E-03    0.349E-04
DAV:   9    -0.381803212742E+02   -0.16789E-08   -0.30110E-08  7996   0.307E-03
  14 F= -.38180321E+02 E0= -.38178617E+02  d E =-.217445E-03
 trial-energy change:   -0.000217  1 .order   -0.000218   -0.000250   -0.000186
 step:   1.0382(harm=  1.0382)  dis= 0.00670  next Energy=   -38.180592 (dE=-0.488E-03)
 bond charge predicted
       N       E                     dE             d eps       ncg     rms          rms(c)
DAV:   1    -0.381811181286E+02   -0.79686E-03   -0.59937E-01  9920   0.447E+00    0.369E-01
DAV:   2    -0.381811862271E+02   -0.68099E-04   -0.24154E-02 11300   0.158E+00    0.197E-01
DAV:   3    -0.381807220565E+02    0.46417E-03   -0.17967E-03 12060   0.596E-01    0.937E-02
DAV:   4    -0.381805741466E+02    0.14791E-03   -0.49176E-04 12284   0.429E-01    0.208E-02
DAV:   5    -0.381805834277E+02   -0.92811E-05   -0.17401E-04 10992   0.186E-01    0.102E-02
DAV:   6    -0.381805857336E+02   -0.23058E-05   -0.36435E-05 12256   0.876E-02    0.702E-03
DAV:   7    -0.381805858865E+02   -0.15290E-06   -0.57902E-06 12488   0.547E-02    0.348E-03
DAV:   8    -0.381805861904E+02   -0.30392E-06   -0.25051E-06 14080   0.143E-02    0.994E-04
DAV:   9    -0.381805862047E+02   -0.14340E-07   -0.27846E-07 11292   0.936E-03    0.722E-04
DAV:  10    -0.381805862233E+02   -0.18600E-07   -0.52676E-08 10940   0.514E-03    0.284E-04
DAV:  11    -0.381805862296E+02   -0.62882E-08   -0.10124E-08  6144   0.176E-03
  15 F= -.38180586E+02 E0= -.38178888E+02  d E =-.482400E-03
 curvature:  -2.75 expect dE=-0.126E-02 dE for cont linesearch -0.109E-06
 trial: gam= 0.15377 g(F)=  0.335E-03 g(S)=  0.121E-03 ort =-0.140E-04 (trialstep = 0.420E+00)
 search vector abs. value=  0.570E-03
 bond charge predicted
       N       E                     dE             d eps       ncg     rms          rms(c)
DAV:   1    -0.381806919722E+02   -0.10575E-03   -0.21551E-02 10676   0.101E+00    0.821E-02
DAV:   2    -0.381807084628E+02   -0.16491E-04   -0.15370E-03 11928   0.446E-01    0.400E-02
DAV:   3    -0.381806957794E+02    0.12683E-04   -0.10176E-04 12128   0.110E-01    0.211E-02
DAV:   4    -0.381806879110E+02    0.78684E-05   -0.17435E-05 12012   0.658E-02    0.497E-03
DAV:   5    -0.381806882683E+02   -0.35734E-06   -0.66385E-06 10708   0.297E-02    0.173E-03
DAV:   6    -0.381806882676E+02    0.71122E-09   -0.80359E-07 12296   0.116E-02    0.100E-03
DAV:   7    -0.381806882438E+02    0.23759E-07   -0.12632E-07 11740   0.781E-03    0.436E-04
DAV:   8    -0.381806882329E+02    0.10934E-07   -0.41939E-08  8432   0.252E-03    0.144E-04
DAV:   9    -0.381806882298E+02    0.30573E-08   -0.84874E-09  5980   0.110E-03
  16 F= -.38180688E+02 E0= -.38178998E+02  d E =-.102000E-03
 trial-energy change:   -0.000102  1 .order   -0.000102   -0.000191   -0.000013
 step:   0.4492(harm=  0.4495)  dis= 0.00093  next Energy=   -38.180689 (dE=-0.102E-03)
 bond charge predicted
       N       E                     dE             d eps       ncg     rms          rms(c)
DAV:   1    -0.381806886313E+02   -0.39837E-06   -0.10377E-04 10764   0.699E-02    0.568E-03
DAV:   2    -0.381806887061E+02   -0.74870E-07   -0.73569E-06 11960   0.309E-02    0.277E-03
DAV:   3    -0.381806886981E+02    0.80067E-08   -0.49159E-07 12124   0.760E-03    0.146E-03
DAV:   4    -0.381806886901E+02    0.79913E-08   -0.82114E-08 11200   0.455E-03
  17 F= -.38180689E+02 E0= -.38178999E+02  d E =-.102461E-03
 curvature:  -0.28 expect dE=-0.208E-03 dE for cont linesearch -0.403E-08
 trial: gam= 1.62194 g(F)=  0.613E-03 g(S)=  0.126E-03 ort =-0.285E-05 (trialstep = 0.109E+00)
 search vector abs. value=  0.223E-02
 bond charge predicted
       N       E                     dE             d eps       ncg     rms          rms(c)
DAV:   1    -0.381807621523E+02   -0.73454E-04   -0.57454E-03 10056   0.440E-01    0.299E-02
DAV:   2    -0.381807667181E+02   -0.45658E-05   -0.21093E-04 10880   0.146E-01    0.162E-02
DAV:   3    -0.381807643185E+02    0.23996E-05   -0.15791E-05 12840   0.433E-02    0.796E-03
DAV:   4    -0.381807631918E+02    0.11267E-05   -0.30808E-06 11864   0.236E-02    0.196E-03
DAV:   5    -0.381807632666E+02   -0.74812E-07   -0.11153E-06 10736   0.107E-02    0.855E-04
DAV:   6    -0.381807632676E+02   -0.95042E-09   -0.12451E-07 12036   0.509E-03    0.502E-04
DAV:   7    -0.381807632598E+02    0.77507E-08   -0.15933E-08  6440   0.354E-03
  18 F= -.38180763E+02 E0= -.38179067E+02  d E =-.745697E-04
 ZBRENT: can't locate minimum, use default step
 trial-energy change:   -0.000075  1 .order   -0.000074   -0.000080   -0.000069
 step:   0.4357(harm=  0.7853)  dis= 0.00183  next Energy=   -38.180918 (dE=-0.229E-03)
 bond charge predicted
       N       E                     dE             d eps       ncg     rms          rms(c)
DAV:   1    -0.381809100091E+02   -0.14674E-03   -0.51707E-02 10056   0.132E+00    0.897E-02
DAV:   2    -0.381809514886E+02   -0.41480E-04   -0.18962E-03 10872   0.437E-01    0.487E-02
DAV:   3    -0.381809286003E+02    0.22888E-04   -0.14202E-04 12836   0.129E-01    0.239E-02
DAV:   4    -0.381809183125E+02    0.10288E-04   -0.27409E-05 11816   0.685E-02    0.587E-03
DAV:   5    -0.381809188716E+02   -0.55915E-06   -0.10208E-05 10724   0.303E-02    0.258E-03
DAV:   6    -0.381809188948E+02   -0.23203E-07   -0.99996E-07 12924   0.149E-02    0.151E-03
DAV:   7    -0.381809188703E+02    0.24505E-07   -0.15429E-07 13792   0.972E-03    0.554E-04
DAV:   8    -0.381809188616E+02    0.87243E-08   -0.49669E-08  9652   0.334E-03
  19 F= -.38180919E+02 E0= -.38179204E+02  d E =-.230171E-03
 curvature:  -0.87 expect dE=-0.185E-03 dE for cont linesearch -0.403E-04
 ZBRENT: increasing intervall
 opt :   1.0893  next Energy=   -38.180925 (dE=-0.236E-03)
 bond charge predicted
       N       E                     dE             d eps       ncg     rms          rms(c)
DAV:   1    -0.381808924852E+02    0.26385E-04   -0.20678E-01 10052   0.263E+00    0.180E-01
DAV:   2    -0.381810570886E+02   -0.16460E-03   -0.75756E-03 10880   0.872E-01    0.974E-02
DAV:   3    -0.381809641515E+02    0.92937E-04   -0.56690E-04 12876   0.259E-01    0.478E-02
DAV:   4    -0.381809228653E+02    0.41286E-04   -0.10984E-04 11840   0.139E-01    0.118E-02
DAV:   5    -0.381809249202E+02   -0.20550E-05   -0.40610E-05 10728   0.626E-02    0.518E-03
DAV:   6    -0.381809250751E+02   -0.15483E-06   -0.43063E-06 12872   0.307E-02    0.306E-03
DAV:   7    -0.381809250221E+02    0.53003E-07   -0.65450E-07 12936   0.205E-02    0.114E-03
DAV:   8    -0.381809250175E+02    0.45497E-08   -0.24324E-07 11848   0.735E-03    0.442E-04
DAV:   9    -0.381809250140E+02    0.34970E-08   -0.60661E-08  9648   0.304E-03
  20 F= -.38180925E+02 E0= -.38179171E+02  d E =-.236324E-03
 curvature:  -0.13 expect dE=-0.877E-04 dE for cont linesearch -0.552E-05
 ZBRENT: bracketing found
 ZBRENT: interpolating
 opt :   0.7708  next Energy=   -38.180974 (dE=-0.285E-03)
 bond charge predicted
       N       E                     dE             d eps       ncg     rms          rms(c)
DAV:   1    -0.381809643328E+02   -0.39315E-04   -0.49115E-02 10048   0.129E+00    0.875E-02
DAV:   2    -0.381810055246E+02   -0.41192E-04   -0.18135E-03 10888   0.429E-01    0.476E-02
DAV:   3    -0.381809825161E+02    0.23008E-04   -0.13589E-04 12740   0.128E-01    0.233E-02
DAV:   4    -0.381809725776E+02    0.99385E-05   -0.26657E-05 11848   0.689E-02    0.571E-03
DAV:   5    -0.381809729587E+02   -0.38104E-06   -0.95888E-06 10728   0.309E-02    0.250E-03
DAV:   6    -0.381809730195E+02   -0.60894E-07   -0.10553E-06 12872   0.151E-02    0.147E-03
DAV:   7    -0.381809730383E+02   -0.18737E-07   -0.16201E-07 12616   0.105E-02    0.538E-04
DAV:   8    -0.381809730565E+02   -0.18231E-07   -0.60367E-08  9612   0.366E-03    0.214E-04
DAV:   9    -0.381809730629E+02   -0.63701E-08   -0.16215E-08  6500   0.161E-03
  21 F= -.38180973E+02 E0= -.38179238E+02  d E =-.284373E-03
 curvature:  -1.16 expect dE=-0.301E-03 dE for cont linesearch -0.867E-09
 trial: gam= 0.36432 g(F)=  0.163E-03 g(S)=  0.958E-04 ort = 0.129E-05 (trialstep = 0.241E+00)
 search vector abs. value=  0.555E-03
 bond charge predicted
       N       E                     dE             d eps       ncg     rms          rms(c)
DAV:   1    -0.381810493879E+02   -0.76331E-04   -0.70933E-03 10492   0.542E-01    0.478E-02
DAV:   2    -0.381810383209E+02    0.11067E-04   -0.38858E-04 10968   0.239E-01    0.203E-02
DAV:   3    -0.381810340733E+02    0.42475E-05   -0.28640E-05 13592   0.603E-02    0.993E-03
DAV:   4    -0.381810318602E+02    0.22131E-05   -0.43095E-06 13688   0.311E-02    0.313E-03
DAV:   5    -0.381810316823E+02    0.17792E-06   -0.16261E-06 10784   0.126E-02    0.984E-04
DAV:   6    -0.381810316785E+02    0.38376E-08   -0.24760E-07 12584   0.563E-03    0.569E-04
DAV:   7    -0.381810316815E+02   -0.30286E-08   -0.26883E-08  7920   0.437E-03
  22 F= -.38181032E+02 E0= -.38179294E+02  d E =-.586186E-04
 ZBRENT: can't locate minimum, use default step
 trial-energy change:   -0.000059  1 .order   -0.000059   -0.000062   -0.000055
 step:   0.9652(harm=  2.1465)  dis= 0.00225  next Energy=   -38.181251 (dE=-0.278E-03)
 bond charge predicted
       N       E                     dE             d eps       ncg     rms          rms(c)
DAV:   1    -0.381813242514E+02   -0.29257E-03   -0.63863E-02 10460   0.163E+00    0.143E-01
DAV:   2    -0.381812246637E+02    0.99588E-04   -0.35038E-03 10968   0.716E-01    0.608E-02
DAV:   3    -0.381811892614E+02    0.35402E-04   -0.25818E-04 13580   0.181E-01    0.298E-02
DAV:   4    -0.381811704809E+02    0.18780E-04   -0.38916E-05 13672   0.945E-02    0.941E-03
DAV:   5    -0.381811694443E+02    0.10367E-05   -0.14652E-05 10820   0.382E-02    0.295E-03
DAV:   6    -0.381811694869E+02   -0.42683E-07   -0.22755E-06 12576   0.169E-02    0.171E-03
DAV:   7    -0.381811694854E+02    0.15521E-08   -0.27908E-07 13024   0.132E-02    0.987E-04
DAV:   8    -0.381811695128E+02   -0.27448E-07   -0.10009E-07 11480   0.380E-03    0.385E-04
DAV:   9    -0.381811695207E+02   -0.78662E-08   -0.24571E-08  7012   0.148E-03
  23 F= -.38181170E+02 E0= -.38179423E+02  d E =-.196458E-03
 curvature:  -1.42 expect dE=-0.185E-03 dE for cont linesearch -0.581E-04
 ZBRENT: increasing intervall
 opt :   2.4130  next Energy=   -38.181274 (dE=-0.301E-03)
 bond charge predicted
       N       E                     dE             d eps       ncg     rms          rms(c)
DAV:   1    -0.381818729721E+02   -0.70346E-03   -0.25549E-01 10364   0.326E+00    0.286E-01
DAV:   2    -0.381814870187E+02    0.38595E-03   -0.14090E-02 10952   0.144E+00    0.122E-01
DAV:   3    -0.381813489540E+02    0.13806E-03   -0.10351E-03 13556   0.363E-01    0.596E-02
DAV:   4    -0.381812749764E+02    0.73978E-04   -0.15573E-04 13608   0.190E-01    0.188E-02
DAV:   5    -0.381812713865E+02    0.35899E-05   -0.58428E-05 10908   0.769E-02    0.585E-03
DAV:   6    -0.381812716430E+02   -0.25646E-06   -0.91277E-06 12548   0.340E-02    0.341E-03
DAV:   7    -0.381812716115E+02    0.31455E-07   -0.11047E-06 13024   0.263E-02    0.197E-03
DAV:   8    -0.381812716759E+02   -0.64384E-07   -0.40862E-07 13656   0.756E-03    0.777E-04
DAV:   9    -0.381812716907E+02   -0.14789E-07   -0.11073E-07 13188   0.281E-03    0.309E-04
DAV:  10    -0.381812717010E+02   -0.10371E-07   -0.17788E-08  7028   0.167E-03    0.156E-04
DAV:  11    -0.381812717049E+02   -0.38194E-08   -0.61899E-09  5956   0.977E-04
  24 F= -.38181272E+02 E0= -.38179508E+02  d E =-.298642E-03
 curvature:  -2.54 expect dE=-0.742E-03 dE for cont linesearch -0.881E-06
 trial: gam= 1.21048 g(F)=  0.182E-03 g(S)=  0.110E-03 ort =-0.139E-04 (trialstep = 0.350E+00)
 search vector abs. value=  0.107E-02
 bond charge predicted
       N       E                     dE             d eps       ncg     rms          rms(c)
DAV:   1    -0.381812808600E+02   -0.91590E-05   -0.31210E-02  9860   0.943E-01    0.372E-02
DAV:   2    -0.381813404334E+02   -0.59573E-04   -0.75767E-04 11608   0.195E-01    0.218E-02
DAV:   3    -0.381813353433E+02    0.50901E-05   -0.28788E-05 13236   0.642E-02    0.138E-02
DAV:   4    -0.381813324925E+02    0.28507E-05   -0.94938E-06 13172   0.682E-02    0.397E-03
DAV:   5    -0.381813325499E+02   -0.57370E-07   -0.32271E-06 11640   0.352E-02    0.180E-03
DAV:   6    -0.381813325911E+02   -0.41153E-07   -0.87897E-07 12700   0.742E-03    0.115E-03
DAV:   7    -0.381813325839E+02    0.71159E-08   -0.75014E-08 10692   0.255E-03
  25 F= -.38181333E+02 E0= -.38179576E+02  d E =-.608791E-04
 trial-energy change:   -0.000061  1 .order   -0.000063   -0.000096   -0.000030
 step:   0.6054(harm=  0.5098)  dis= 0.00223  next Energy=   -38.181343 (dE=-0.710E-04)
 bond charge predicted
       N       E                     dE             d eps       ncg     rms          rms(c)
DAV:   1    -0.381813096201E+02    0.22971E-04   -0.16646E-02  9856   0.689E-01    0.272E-02
DAV:   2    -0.381813415453E+02   -0.31925E-04   -0.40540E-04 11616   0.144E-01    0.160E-02
DAV:   3    -0.381813388489E+02    0.26964E-05   -0.15689E-05 13032   0.503E-02    0.101E-02
DAV:   4    -0.381813373503E+02    0.14986E-05   -0.54188E-06 13444   0.531E-02    0.295E-03
DAV:   5    -0.381813373770E+02   -0.26639E-07   -0.18260E-06 11904   0.269E-02    0.133E-03
DAV:   6    -0.381813373992E+02   -0.22289E-07   -0.50961E-07 12716   0.573E-03    0.853E-04
DAV:   7    -0.381813373958E+02    0.34174E-08   -0.50518E-08  8728   0.213E-03
  26 F= -.38181337E+02 E0= -.38179586E+02  d E =-.656910E-04
 curvature:  -0.64 expect dE=-0.468E-03 dE for cont linesearch -0.160E-05
 trial: gam= 2.61260 g(F)=  0.685E-03 g(S)=  0.499E-04 ort =-0.518E-04 (trialstep = 0.553E-01)
 search vector abs. value=  0.778E-02
 bond charge predicted
       N       E                     dE             d eps       ncg     rms          rms(c)
DAV:   1    -0.381813629151E+02   -0.25516E-04   -0.55936E-03  9864   0.394E-01    0.166E-02
DAV:   2    -0.381813713828E+02   -0.84677E-05   -0.12018E-04 11092   0.864E-02    0.909E-03
DAV:   3    -0.381813705366E+02    0.84618E-06   -0.67287E-06 12884   0.394E-02    0.519E-03
DAV:   4    -0.381813701066E+02    0.43001E-06   -0.17377E-06 13072   0.350E-02    0.148E-03
DAV:   5    -0.381813701179E+02   -0.11321E-07   -0.69069E-07 11544   0.132E-02    0.653E-04
DAV:   6    -0.381813701339E+02   -0.15937E-07   -0.20247E-07 13380   0.320E-03    0.442E-04
DAV:   7    -0.381813701326E+02    0.12674E-08   -0.74223E-09  5988   0.123E-03
  27 F= -.38181370E+02 E0= -.38179618E+02  d E =-.327368E-04
 ZBRENT: can't locate minimum, use default step
 trial-energy change:   -0.000033  1 .order   -0.000031   -0.000033   -0.000030
 step:   0.2210(harm=  0.5721)  dis= 0.00224  next Energy=   -38.181509 (dE=-0.171E-03)
 bond charge predicted
       N       E                     dE             d eps       ncg     rms          rms(c)
DAV:   1    -0.381813809809E+02   -0.10847E-04   -0.50324E-02  9856   0.118E+00    0.498E-02
DAV:   2    -0.381814568911E+02   -0.75910E-04   -0.10785E-03 11084   0.254E-01    0.272E-02
DAV:   3    -0.381814491630E+02    0.77281E-05   -0.57854E-05 12816   0.111E-01    0.155E-02
DAV:   4    -0.381814455196E+02    0.36434E-05   -0.15293E-05 13416   0.102E-01    0.440E-03
DAV:   5    -0.381814456212E+02   -0.10159E-06   -0.55711E-06 11368   0.388E-02    0.193E-03
DAV:   6    -0.381814457394E+02   -0.11820E-06   -0.16608E-06 13456   0.941E-03    0.131E-03
DAV:   7    -0.381814457337E+02    0.57016E-08   -0.99966E-08 12044   0.316E-03
  28 F= -.38181446E+02 E0= -.38179690E+02  d E =-.108338E-03
 curvature:  -2.00 expect dE=-0.100E-02 dE for cont linesearch -0.346E-04
 ZBRENT: increasing intervall
 opt :   0.5525  next Energy=   -38.181510 (dE=-0.172E-03)
 bond charge predicted
       N       E                     dE             d eps       ncg     rms          rms(c)
DAV:   1    -0.381812525228E+02    0.19322E-03   -0.20131E-01  9856   0.236E+00    0.995E-02
DAV:   2    -0.381815562277E+02   -0.30370E-03   -0.43143E-03 11076   0.508E-01    0.544E-02
DAV:   3    -0.381815254615E+02    0.30766E-04   -0.23280E-04 12848   0.223E-01    0.310E-02
DAV:   4    -0.381815111498E+02    0.14312E-04   -0.61190E-05 13384   0.205E-01    0.882E-03
DAV:   5    -0.381815116267E+02   -0.47690E-06   -0.22663E-05 11464   0.777E-02    0.386E-03
DAV:   6    -0.381815120993E+02   -0.47259E-06   -0.66941E-06 13384   0.188E-02    0.261E-03
DAV:   7    -0.381815120712E+02    0.28029E-07   -0.36906E-07 12944   0.687E-03    0.169E-03
DAV:   8    -0.381815120640E+02    0.72500E-08   -0.26426E-07 13152   0.647E-03    0.492E-04
DAV:   9    -0.381815120714E+02   -0.74474E-08   -0.10329E-07 10324   0.401E-03    0.358E-04
DAV:  10    -0.381815120692E+02    0.22455E-08   -0.15174E-08  6084   0.234E-03
  29 F= -.38181512E+02 E0= -.38179749E+02  d E =-.174673E-03
 curvature:  -3.69 expect dE=-0.145E-02 dE for cont linesearch -0.359E-06
 trial: gam= 0.02972 g(F)=  0.366E-03 g(S)=  0.260E-04 ort = 0.275E-04 (trialstep = 0.155E+00)
 search vector abs. value=  0.401E-03
 bond charge predicted
       N       E                     dE             d eps       ncg     rms          rms(c)
DAV:   1    -0.381815518432E+02   -0.39772E-04   -0.21616E-03  9880   0.261E-01    0.157E-02
DAV:   2    -0.381815583956E+02   -0.65525E-05   -0.10978E-04 11472   0.747E-02    0.107E-02
DAV:   3    -0.381815573810E+02    0.10146E-05   -0.56909E-06 12036   0.234E-02    0.647E-03
DAV:   4    -0.381815568714E+02    0.50960E-06   -0.16455E-06 13700   0.236E-02    0.255E-03
DAV:   5    -0.381815569118E+02   -0.40372E-07   -0.49748E-07 11520   0.969E-03    0.829E-04
DAV:   6    -0.381815569282E+02   -0.16447E-07   -0.92050E-08 10716   0.384E-03    0.438E-04
DAV:   7    -0.381815569324E+02   -0.42096E-08   -0.13448E-08  6048   0.393E-03
  30 F= -.38181557E+02 E0= -.38179788E+02  d E =-.448632E-04
 trial-energy change:   -0.000045  1 .order   -0.000045   -0.000061   -0.000029
 step:   0.2969(harm=  0.2969)  dis= 0.00054  next Energy=   -38.181570 (dE=-0.583E-04)
 bond charge predicted
       N       E                     dE             d eps       ncg     rms          rms(c)
DAV:   1    -0.381815661683E+02   -0.92401E-05   -0.18286E-03  9884   0.240E-01    0.144E-02
DAV:   2    -0.381815717138E+02   -0.55455E-05   -0.92974E-05 11480   0.685E-02    0.982E-03
DAV:   3    -0.381815708621E+02    0.85166E-06   -0.48110E-06 12032   0.210E-02    0.596E-03
DAV:   4    -0.381815704263E+02    0.43584E-06   -0.13908E-06 13700   0.212E-02    0.235E-03
DAV:   5    -0.381815704639E+02   -0.37617E-07   -0.42295E-07 11424   0.851E-03    0.761E-04
DAV:   6    -0.381815704774E+02   -0.13465E-07   -0.72762E-08 10592   0.334E-03    0.399E-04
DAV:   7    -0.381815704814E+02   -0.40727E-08   -0.11072E-08  6020   0.358E-03
  31 F= -.38181570E+02 E0= -.38179796E+02  d E =-.584123E-04
 curvature:  -0.15 expect dE=-0.429E-04 dE for cont linesearch -0.175E-08
 trial: gam= 0.71949 g(F)=  0.194E-03 g(S)=  0.892E-04 ort = 0.215E-05 (trialstep = 0.149E+00)
 search vector abs. value=  0.494E-03
 bond charge predicted
       N       E                     dE             d eps       ncg     rms          rms(c)
DAV:   1    -0.381816176129E+02   -0.47136E-04   -0.21907E-03 10420   0.344E-01    0.342E-02
DAV:   2    -0.381816103721E+02    0.72408E-05   -0.18840E-04 11532   0.175E-01    0.161E-02
DAV:   3    -0.381816085851E+02    0.17871E-05   -0.16403E-05 12844   0.492E-02    0.763E-03
DAV:   4    -0.381816076474E+02    0.93766E-06   -0.24880E-06 13200   0.344E-02    0.226E-03
DAV:   5    -0.381816077057E+02   -0.58251E-07   -0.11066E-06 11848   0.119E-02    0.658E-04
DAV:   6    -0.381816077167E+02   -0.11036E-07   -0.15787E-07 12460   0.418E-03    0.408E-04
DAV:   7    -0.381816077101E+02    0.65393E-08   -0.10241E-08  6112   0.344E-03
  32 F= -.38181608E+02 E0= -.38179836E+02  d E =-.372287E-04
 trial-energy change:   -0.000037  1 .order   -0.000037   -0.000042   -0.000031
 step:   0.4151(harm=  0.5732)  dis= 0.00079  next Energy=   -38.181638 (dE=-0.676E-04)
 bond charge predicted
       N       E                     dE             d eps       ncg     rms          rms(c)
DAV:   1    -0.381816802924E+02   -0.72576E-04   -0.70500E-03 10416   0.618E-01    0.614E-02
DAV:   2    -0.381816571186E+02    0.23174E-04   -0.60646E-04 11532   0.314E-01    0.289E-02
DAV:   3    -0.381816508972E+02    0.62214E-05   -0.52823E-05 12828   0.887E-02    0.137E-02
DAV:   4    -0.381816476655E+02    0.32317E-05   -0.80726E-06 13192   0.620E-02    0.405E-03
DAV:   5    -0.381816477623E+02   -0.96827E-07   -0.35792E-06 11920   0.215E-02    0.118E-03
DAV:   6    -0.381816477886E+02   -0.26332E-07   -0.50586E-07 12700   0.751E-03    0.735E-04
DAV:   7    -0.381816477743E+02    0.14294E-07   -0.34109E-08  8052   0.609E-03    0.417E-04
DAV:   8    -0.381816477621E+02    0.12281E-07   -0.24814E-08  7732   0.224E-03    0.194E-04
DAV:   9    -0.381816477608E+02    0.12883E-08   -0.11857E-08  5932   0.228E-03
  33 F= -.38181648E+02 E0= -.38179882E+02  d E =-.772793E-04
 curvature:  -0.43 expect dE=-0.254E-04 dE for cont linesearch -0.638E-05
 ZBRENT: increasing intervall
 opt :   0.9483  next Energy=   -38.181627 (dE=-0.562E-04)
 bond charge predicted
       N       E                     dE             d eps       ncg     rms          rms(c)
DAV:   1    -0.381817567087E+02   -0.10895E-03   -0.28173E-02 10424   0.123E+00    0.123E-01
DAV:   2    -0.381816643126E+02    0.92396E-04   -0.24233E-03 11524   0.628E-01    0.577E-02
DAV:   3    -0.381816382140E+02    0.26099E-04   -0.21033E-04 12940   0.176E-01    0.274E-02
DAV:   4    -0.381816246968E+02    0.13517E-04   -0.31863E-05 13208   0.122E-01    0.806E-03
DAV:   5    -0.381816248365E+02   -0.13973E-06   -0.13923E-05 11536   0.421E-02    0.235E-03
DAV:   6    -0.381816249267E+02   -0.90138E-07   -0.20720E-06 12708   0.154E-02    0.146E-03
DAV:   7    -0.381816248902E+02    0.36497E-07   -0.17126E-07 12936   0.127E-02    0.819E-04
DAV:   8    -0.381816248658E+02    0.24406E-07   -0.79855E-08 13116   0.381E-03    0.313E-04
DAV:   9    -0.381816248611E+02    0.47221E-08   -0.31820E-08  8108   0.373E-03
  34 F= -.38181625E+02 E0= -.38179871E+02  d E =-.543796E-04
 curvature:   1.41 expect dE= 0.418E-03 dE for cont linesearch  0.836E-04
 ZBRENT: bracketing found
 ZBRENT: interpolating
 opt :   0.5933  next Energy=   -38.181655 (dE=-0.849E-04)
 bond charge predicted
       N       E                     dE             d eps       ncg     rms          rms(c)
DAV:   1    -0.381817152988E+02   -0.90433E-04   -0.12503E-02 10424   0.824E-01    0.818E-02
DAV:   2    -0.381816749810E+02    0.40318E-04   -0.10778E-03 11516   0.417E-01    0.385E-02
DAV:   3    -0.381816621694E+02    0.12812E-04   -0.92989E-05 12956   0.116E-01    0.182E-02
DAV:   4    -0.381816555456E+02    0.66238E-05   -0.13924E-05 13168   0.803E-02    0.541E-03
DAV:   5    -0.381816553416E+02    0.20404E-06   -0.61454E-06 11480   0.278E-02    0.156E-03
DAV:   6    -0.381816553605E+02   -0.18925E-07   -0.92741E-07 12684   0.104E-02    0.974E-04
DAV:   7    -0.381816553610E+02   -0.54797E-09   -0.77146E-08 11124   0.860E-03
  35 F= -.38181655E+02 E0= -.38179894E+02  d E =-.848796E-04
 curvature:  -0.13 expect dE=-0.933E-05 dE for cont linesearch -0.610E-08
 trial: gam= 0.25744 g(F)=  0.527E-04 g(S)=  0.196E-04 ort = 0.483E-05 (trialstep = 0.238E+00)
 search vector abs. value=  0.107E-03
 bond charge predicted
       N       E                     dE             d eps       ncg     rms          rms(c)
DAV:   1    -0.381816743568E+02   -0.18996E-04   -0.98719E-04 10320   0.185E-01    0.168E-02
DAV:   2    -0.381816732405E+02    0.11163E-05   -0.32212E-05 12568   0.634E-02    0.989E-03
DAV:   3    -0.381816719374E+02    0.13031E-05   -0.29575E-06 12772   0.240E-02    0.384E-03
DAV:   4    -0.381816717502E+02    0.18717E-06   -0.96078E-07 11352   0.121E-02    0.675E-04
DAV:   5    -0.381816717672E+02   -0.16970E-07   -0.26938E-07 11104   0.586E-03    0.489E-04
DAV:   6    -0.381816717665E+02    0.70713E-09   -0.34090E-08  8668   0.320E-03
  36 F= -.38181672E+02 E0= -.38179911E+02  d E =-.164055E-04
 ZBRENT: can't locate minimum, use default step
 trial-energy change:   -0.000016  1 .order   -0.000016   -0.000017   -0.000015
 step:   0.9501(harm=  1.9643)  dis= 0.00074  next Energy=   -38.181728 (dE=-0.722E-04)
 bond charge predicted
       N       E                     dE             d eps       ncg     rms          rms(c)
DAV:   1    -0.381817344462E+02   -0.62679E-04   -0.88881E-03 10328   0.554E-01    0.505E-02
DAV:   2    -0.381817244016E+02    0.10045E-04   -0.28889E-04 12648   0.191E-01    0.296E-02
DAV:   3    -0.381817117798E+02    0.12622E-04   -0.26055E-05 12176   0.778E-02    0.115E-02
DAV:   4    -0.381817099971E+02    0.17827E-05   -0.91184E-06 11104   0.397E-02    0.205E-03
DAV:   5    -0.381817101714E+02   -0.17434E-06   -0.25170E-06 11020   0.195E-02    0.149E-03
DAV:   6    -0.381817101813E+02   -0.99258E-08   -0.38350E-07 11992   0.113E-02    0.968E-04
DAV:   7    -0.381817101703E+02    0.11074E-07   -0.80199E-08 11476   0.475E-03    0.407E-04
DAV:   8    -0.381817101642E+02    0.60190E-08   -0.19600E-08  6412   0.198E-03
  37 F= -.38181710E+02 E0= -.38179951E+02  d E =-.548032E-04
 curvature:  -0.94 expect dE=-0.345E-04 dE for cont linesearch -0.157E-04
 ZBRENT: increasing intervall
 opt :   2.3752  next Energy=   -38.181739 (dE=-0.835E-04)
 bond charge predicted
       N       E                     dE             d eps       ncg     rms          rms(c)
DAV:   1    -0.381818367470E+02   -0.12658E-03   -0.35545E-02 10336   0.111E+00    0.101E-01
DAV:   2    -0.381817966270E+02    0.40120E-04   -0.11540E-03 12652   0.381E-01    0.592E-02
DAV:   3    -0.381817452989E+02    0.51328E-04   -0.10377E-04 12180   0.155E-01    0.230E-02
DAV:   4    -0.381817380594E+02    0.72395E-05   -0.36301E-05 11112   0.787E-02    0.409E-03
DAV:   5    -0.381817387772E+02   -0.71773E-06   -0.10056E-05 11004   0.387E-02    0.298E-03
DAV:   6    -0.381817388258E+02   -0.48595E-07   -0.15096E-06 12044   0.225E-02    0.193E-03
DAV:   7    -0.381817388071E+02    0.18618E-07   -0.33075E-07 13560   0.956E-03    0.816E-04
DAV:   8    -0.381817387977E+02    0.94078E-08   -0.80426E-08 10916   0.381E-03
  38 F= -.38181739E+02 E0= -.38179982E+02  d E =-.834367E-04
 curvature:  -1.72 expect dE=-0.112E-03 dE for cont linesearch -0.112E-06
 trial: gam= 0.93515 g(F)=  0.344E-04 g(S)=  0.309E-04 ort =-0.265E-05 (trialstep = 0.463E+00)
 search vector abs. value=  0.154E-03
 bond charge predicted
       N       E                     dE             d eps       ncg     rms          rms(c)
DAV:   1    -0.381818114486E+02   -0.72641E-04   -0.56187E-03 10540   0.533E-01    0.600E-02
DAV:   2    -0.381817776600E+02    0.33789E-04   -0.43300E-04 10892   0.277E-01    0.276E-02
DAV:   3    -0.381817677676E+02    0.98924E-05   -0.39966E-05 13812   0.843E-02    0.131E-02
DAV:   4    -0.381817642717E+02    0.34959E-05   -0.71976E-06 13096   0.516E-02    0.368E-03
DAV:   5    -0.381817641203E+02    0.15141E-06   -0.29445E-06 10792   0.206E-02    0.112E-03
DAV:   6    -0.381817641347E+02   -0.14390E-07   -0.52882E-07 11988   0.985E-03    0.766E-04
DAV:   7    -0.381817641394E+02   -0.46789E-08   -0.71115E-08  9120   0.681E-03
  39 F= -.38181764E+02 E0= -.38180008E+02  d E =-.253416E-04
 trial-energy change:   -0.000025  1 .order   -0.000025   -0.000029   -0.000020
 step:   1.0240(harm=  1.5469)  dis= 0.00106  next Energy=   -38.181778 (dE=-0.388E-04)
 bond charge predicted
       N       E                     dE             d eps       ncg     rms          rms(c)
DAV:   1    -0.381818532675E+02   -0.89133E-04   -0.82425E-03 10540   0.645E-01    0.727E-02
DAV:   2    -0.381818034889E+02    0.49779E-04   -0.63350E-04 10892   0.335E-01    0.334E-02
DAV:   3    -0.381817891159E+02    0.14373E-04   -0.58719E-05 13824   0.102E-01    0.158E-02
DAV:   4    -0.381817840478E+02    0.50681E-05   -0.10534E-05 13128   0.626E-02    0.447E-03
DAV:   5    -0.381817838517E+02    0.19608E-06   -0.43106E-06 10808   0.249E-02    0.136E-03
DAV:   6    -0.381817838771E+02   -0.25393E-07   -0.78133E-07 12020   0.119E-02    0.934E-04
DAV:   7    -0.381817838833E+02   -0.61964E-08   -0.10597E-07 10344   0.825E-03    0.514E-04
DAV:   8    -0.381817838982E+02   -0.14859E-07   -0.49439E-08  9552   0.199E-03    0.185E-04
DAV:   9    -0.381817839007E+02   -0.25248E-08   -0.96611E-09  5968   0.148E-03
  40 F= -.38181784E+02 E0= -.38180027E+02  d E =-.451029E-04
 curvature:  -1.46 expect dE=-0.531E-04 dE for cont linesearch -0.569E-05
 ZBRENT: increasing intervall
 opt :   2.1455  next Energy=   -38.181790 (dE=-0.508E-04)
 bond charge predicted
       N       E                     dE             d eps       ncg     rms          rms(c)
DAV:   1    -0.381820628507E+02   -0.27895E-03   -0.32957E-02 10528   0.129E+00    0.145E-01
DAV:   2    -0.381818639031E+02    0.19895E-03   -0.25340E-03 10884   0.670E-01    0.669E-02
DAV:   3    -0.381818075721E+02    0.56331E-04   -0.23399E-04 13820   0.203E-01    0.317E-02
DAV:   4    -0.381817876992E+02    0.19873E-04   -0.41919E-05 13096   0.125E-01    0.892E-03
DAV:   5    -0.381817871906E+02    0.50857E-06   -0.17204E-05 10808   0.495E-02    0.271E-03
DAV:   6    -0.381817873249E+02   -0.13434E-06   -0.30817E-06 11996   0.238E-02    0.185E-03
DAV:   7    -0.381817873381E+02   -0.13134E-07   -0.42631E-07 12988   0.164E-02    0.102E-03
DAV:   8    -0.381817873748E+02   -0.36714E-07   -0.19294E-07 12896   0.395E-03    0.364E-04
DAV:   9    -0.381817873812E+02   -0.64529E-08   -0.26186E-08  7336   0.234E-03
  41 F= -.38181787E+02 E0= -.38180031E+02  d E =-.485835E-04
 curvature:  -1.46 expect dE=-0.157E-03 dE for cont linesearch -0.306E-05
 ZBRENT: bracketing found
 ZBRENT: interpolating
 opt :   1.6710  next Energy=   -38.181792 (dE=-0.529E-04)
 bond charge predicted
       N       E                     dE             d eps       ncg     rms          rms(c)
DAV:   1    -0.381818403721E+02   -0.52997E-04   -0.58899E-03 10524   0.545E-01    0.615E-02
DAV:   2    -0.381818043359E+02    0.36036E-04   -0.45333E-04 10892   0.283E-01    0.283E-02
DAV:   3    -0.381817949658E+02    0.93701E-05   -0.41850E-05 13832   0.864E-02    0.134E-02
DAV:   4    -0.381817916752E+02    0.32906E-05   -0.75525E-06 13120   0.526E-02    0.377E-03
DAV:   5    -0.381817917458E+02   -0.70577E-07   -0.30761E-06 10800   0.210E-02    0.115E-03
DAV:   6    -0.381817917913E+02   -0.45544E-07   -0.55410E-07 12036   0.100E-02    0.784E-04
DAV:   7    -0.381817917855E+02    0.58753E-08   -0.74317E-08  9164   0.695E-03
  42 F= -.38181792E+02 E0= -.38180035E+02  d E =-.529877E-04
 curvature:  -2.03 expect dE=-0.130E-03 dE for cont linesearch -0.251E-07
 trial: gam= 0.88769 g(F)=  0.562E-04 g(S)=  0.760E-05 ort = 0.138E-05 (trialstep = 0.579E+00)
 search vector abs. value=  0.188E-03
 bond charge predicted
       N       E                     dE             d eps       ncg     rms          rms(c)
DAV:   1    -0.381818181778E+02   -0.26386E-04   -0.12744E-02 10016   0.641E-01    0.497E-02
DAV:   2    -0.381818137743E+02    0.44035E-05   -0.37987E-04 11104   0.198E-01    0.288E-02
DAV:   3    -0.381818013495E+02    0.12425E-04   -0.37644E-05 12704   0.997E-02    0.127E-02
DAV:   4    -0.381817993078E+02    0.20417E-05   -0.10864E-05 11800   0.711E-02    0.380E-03
DAV:   5    -0.381817994887E+02   -0.18084E-06   -0.40550E-06 11488   0.269E-02    0.171E-03
DAV:   6    -0.381817995075E+02   -0.18801E-07   -0.80959E-07 11852   0.146E-02    0.104E-03
DAV:   7    -0.381817995047E+02    0.27430E-08   -0.14857E-07 11312   0.818E-03    0.403E-04
DAV:   8    -0.381817995123E+02   -0.75938E-08   -0.59841E-08  8864   0.291E-03
  43 F= -.38181800E+02 E0= -.38180050E+02  d E =-.772687E-05
 trial-energy change:   -0.000008  1 .order   -0.000008   -0.000038    0.000023
 step:   0.3646(harm=  0.3620)  dis= 0.00049  next Energy=   -38.181804 (dE=-0.119E-04)
 bond charge predicted
       N       E                     dE             d eps       ncg     rms          rms(c)
DAV:   1    -0.381818061552E+02   -0.66505E-05   -0.17474E-03 10024   0.237E-01    0.184E-02
DAV:   2    -0.381818053979E+02    0.75727E-06   -0.51945E-05 11104   0.722E-02    0.107E-02
DAV:   3    -0.381818037778E+02    0.16201E-05   -0.50757E-06 12688   0.356E-02    0.470E-03
DAV:   4    -0.381818034881E+02    0.28970E-06   -0.14626E-06 11820   0.259E-02    0.140E-03
DAV:   5    -0.381818035424E+02   -0.54329E-07   -0.53528E-07 11528   0.997E-03    0.626E-04
DAV:   6    -0.381818035579E+02   -0.15484E-07   -0.10598E-07  9868   0.519E-03    0.384E-04
DAV:   7    -0.381818035616E+02   -0.36216E-08   -0.18924E-08  7236   0.309E-03
  44 F= -.38181804E+02 E0= -.38180051E+02  d E =-.117761E-04
 curvature:  -0.52 expect dE=-0.413E-04 dE for cont linesearch -0.746E-11
 trial: gam= 1.24090 g(F)=  0.712E-04 g(S)=  0.781E-05 ort = 0.518E-07 (trialstep = 0.273E+00)
 search vector abs. value=  0.368E-03
 bond charge predicted
       N       E                     dE             d eps       ncg     rms          rms(c)
DAV:   1    -0.381818223806E+02   -0.18823E-04   -0.60351E-03  9872   0.425E-01    0.242E-02
DAV:   2    -0.381818264824E+02   -0.41018E-05   -0.13516E-04 10704   0.107E-01    0.128E-02
DAV:   3    -0.381818244487E+02    0.20337E-05   -0.95069E-06 12508   0.437E-02    0.634E-03
DAV:   4    -0.381818237592E+02    0.68949E-06   -0.24860E-06 12872   0.319E-02    0.131E-03
DAV:   5    -0.381818237870E+02   -0.27831E-07   -0.95166E-07 11352   0.128E-02    0.699E-04
DAV:   6    -0.381818237904E+02   -0.34556E-08   -0.16245E-07 11084   0.462E-03    0.415E-04
DAV:   7    -0.381818237904E+02    0.90949E-11   -0.24636E-08  7468   0.376E-03
  45 F= -.38181824E+02 E0= -.38180068E+02  d E =-.202289E-04
 ZBRENT: can't locate minimum, use default step
 trial-energy change:   -0.000020  1 .order   -0.000020   -0.000022   -0.000019
 step:   1.0935(harm=  2.1897)  dis= 0.00228  next Energy=   -38.181890 (dE=-0.865E-04)
 bond charge predicted
       N       E                     dE             d eps       ncg     rms          rms(c)
DAV:   1    -0.381818545856E+02   -0.30795E-04   -0.54343E-02  9872   0.127E+00    0.725E-02
DAV:   2    -0.381818913044E+02   -0.36719E-04   -0.12180E-03 10708   0.322E-01    0.385E-02
DAV:   3    -0.381818740139E+02    0.17291E-04   -0.85986E-05 12528   0.130E-01    0.190E-02
DAV:   4    -0.381818680856E+02    0.59282E-05   -0.22379E-05 12832   0.953E-02    0.397E-03
DAV:   5    -0.381818685467E+02   -0.46106E-06   -0.85751E-06 11356   0.381E-02    0.210E-03
DAV:   6    -0.381818686199E+02   -0.73156E-07   -0.14587E-06 12832   0.138E-02    0.124E-03
DAV:   7    -0.381818686243E+02   -0.43938E-08   -0.23541E-07 12640   0.110E-02    0.485E-04
DAV:   8    -0.381818686339E+02   -0.96097E-08   -0.89950E-08 10452   0.325E-03
  46 F= -.38181869E+02 E0= -.38180101E+02  d E =-.650723E-04
 curvature:  -3.43 expect dE=-0.143E-03 dE for cont linesearch -0.174E-04
 ZBRENT: increasing intervall
 opt :   2.7337  next Energy=   -38.181897 (dE=-0.935E-04)
 bond charge predicted
       N       E                     dE             d eps       ncg     rms          rms(c)
DAV:   1    -0.381818356761E+02    0.32948E-04   -0.21738E-01  9872   0.255E+00    0.145E-01
DAV:   2    -0.381819840254E+02   -0.14835E-03   -0.48793E-03 10708   0.649E-01    0.770E-02
DAV:   3    -0.381819161268E+02    0.67899E-04   -0.34680E-04 12520   0.265E-01    0.381E-02
DAV:   4    -0.381818925983E+02    0.23528E-04   -0.89854E-05 12816   0.191E-01    0.800E-03
DAV:   5    -0.381818946563E+02   -0.20580E-05   -0.34394E-05 11300   0.756E-02    0.418E-03
DAV:   6    -0.381818949942E+02   -0.33789E-06   -0.58189E-06 12808   0.282E-02    0.249E-03
DAV:   7    -0.381818950174E+02   -0.23168E-07   -0.97544E-07 12808   0.225E-02    0.964E-04
DAV:   8    -0.381818950569E+02   -0.39531E-07   -0.39147E-07 14588   0.674E-03    0.429E-04
DAV:   9    -0.381818950579E+02   -0.92768E-09   -0.32634E-08  8168   0.203E-03
  47 F= -.38181895E+02 E0= -.38180104E+02  d E =-.914963E-04
 curvature:  -5.59 expect dE=-0.489E-03 dE for cont linesearch -0.154E-05
 trial: gam= 1.13926 g(F)=  0.661E-04 g(S)=  0.213E-04 ort =-0.101E-04 (trialstep = 0.520E+00)
 search vector abs. value=  0.542E-03
 bond charge predicted
       N       E                     dE             d eps       ncg     rms          rms(c)
DAV:   1    -0.381819093662E+02   -0.14309E-04   -0.32908E-02  9892   0.987E-01    0.523E-02
DAV:   2    -0.381819458071E+02   -0.36441E-04   -0.78824E-04 10776   0.237E-01    0.283E-02
DAV:   3    -0.381819369341E+02    0.88730E-05   -0.48269E-05 13024   0.726E-02    0.144E-02
DAV:   4    -0.381819334618E+02    0.34722E-05   -0.11753E-05 12828   0.542E-02    0.354E-03
DAV:   5    -0.381819335149E+02   -0.53038E-07   -0.34579E-06 10836   0.277E-02    0.170E-03
DAV:   6    -0.381819335427E+02   -0.27792E-07   -0.74881E-07 12248   0.974E-03    0.115E-03
DAV:   7    -0.381819335411E+02    0.15948E-08   -0.77578E-08 11112   0.737E-03
  48 F= -.38181934E+02 E0= -.38180137E+02  d E =-.384832E-04
 ZBRENT: can't locate minimum, use default step
 trial-energy change:   -0.000038  1 .order   -0.000035   -0.000039   -0.000031
 step:   2.0785(harm=  2.3617)  dis= 0.00514  next Energy=   -38.181985 (dE=-0.897E-04)
 bond charge predicted
       N       E                     dE             d eps       ncg     rms          rms(c)
DAV:   1    -0.381817686576E+02    0.16489E-03   -0.29633E-01  9892   0.297E+00    0.157E-01
DAV:   2    -0.381820979979E+02   -0.32934E-03   -0.71205E-03 10760   0.715E-01    0.852E-02
DAV:   3    -0.381820202968E+02    0.77701E-04   -0.44159E-04 13024   0.223E-01    0.434E-02
DAV:   4    -0.381819895355E+02    0.30761E-04   -0.10853E-04 12700   0.165E-01    0.107E-02
DAV:   5    -0.381819904391E+02   -0.90357E-06   -0.31589E-05 10836   0.828E-02    0.508E-03
DAV:   6    -0.381819907783E+02   -0.33928E-06   -0.68622E-06 12284   0.296E-02    0.344E-03
DAV:   7    -0.381819907460E+02    0.32375E-07   -0.76662E-07 12608   0.233E-02    0.178E-03
DAV:   8    -0.381819907758E+02   -0.29849E-07   -0.34737E-07 14176   0.632E-03    0.520E-04
DAV:   9    -0.381819907821E+02   -0.63242E-08   -0.58396E-08 10660   0.351E-03
  49 F= -.38181991E+02 E0= -.38180175E+02  d E =-.957243E-04
 curvature:  -8.23 expect dE=-0.710E-03 dE for cont linesearch -0.315E-05
 trial: gam= 0.59509 g(F)=  0.741E-04 g(S)=  0.122E-04 ort = 0.144E-04 (trialstep = 0.831E+00)
 search vector abs. value=  0.296E-03
 bond charge predicted
       N       E                     dE             d eps       ncg     rms          rms(c)
DAV:   1    -0.381819783549E+02    0.12421E-04   -0.44451E-02  9952   0.120E+00    0.616E-02
DAV:   2    -0.381820470082E+02   -0.68653E-04   -0.12791E-03 10832   0.318E-01    0.336E-02
DAV:   3    -0.381820377206E+02    0.92876E-05   -0.87467E-05 12324   0.104E-01    0.178E-02
DAV:   4    -0.381820325716E+02    0.51490E-05   -0.17936E-05 12732   0.887E-02    0.378E-03
DAV:   5    -0.381820329958E+02   -0.42428E-06   -0.61879E-06 11128   0.353E-02    0.190E-03
DAV:   6    -0.381820330508E+02   -0.54936E-07   -0.11006E-06 12348   0.107E-02    0.118E-03
DAV:   7    -0.381820330309E+02    0.19889E-07   -0.13114E-07 13052   0.100E-02    0.413E-04
DAV:   8    -0.381820330282E+02    0.26885E-08   -0.46392E-08  9824   0.244E-03
  50 F= -.38182033E+02 E0= -.38180224E+02  d E =-.422461E-04
 trial-energy change:   -0.000042  1 .order   -0.000042   -0.000079   -0.000004
 step:   0.8762(harm=  0.8788)  dis= 0.00114  next Energy=   -38.182033 (dE=-0.424E-04)
 bond charge predicted
       N       E                     dE             d eps       ncg     rms          rms(c)
DAV:   1    -0.381820329909E+02    0.39995E-07   -0.12900E-04 10056   0.645E-02    0.330E-03
DAV:   2    -0.381820331910E+02   -0.20008E-06   -0.36903E-06 10872   0.171E-02    0.180E-03
DAV:   3    -0.381820331897E+02    0.13097E-08   -0.25373E-07 12264   0.530E-03    0.952E-04
DAV:   4    -0.381820331820E+02    0.76147E-08   -0.45302E-08 10708   0.435E-03
  51 F= -.38182033E+02 E0= -.38180224E+02  d E =-.423999E-04
 curvature:  -1.36 expect dE=-0.293E-03 dE for cont linesearch -0.132E-10
 trial: gam= 2.63948 g(F)=  0.186E-03 g(S)=  0.292E-04 ort =-0.536E-07 (trialstep = 0.109E+00)
 search vector abs. value=  0.227E-02
 bond charge predicted
       N       E                     dE             d eps       ncg     rms          rms(c)
DAV:   1    -0.381820436100E+02   -0.10420E-04   -0.58730E-03  9964   0.427E-01    0.202E-02
DAV:   2    -0.381820527399E+02   -0.91300E-05   -0.14967E-04 10840   0.938E-02    0.114E-02
DAV:   3    -0.381820514082E+02    0.13317E-05   -0.88618E-06 13628   0.318E-02    0.577E-03
DAV:   4    -0.381820509032E+02    0.50505E-06   -0.15694E-06 12092   0.239E-02    0.159E-03
DAV:   5    -0.381820509389E+02   -0.35760E-07   -0.61659E-07 10700   0.109E-02    0.682E-04
DAV:   6    -0.381820509504E+02   -0.11445E-07   -0.11971E-07 11044   0.510E-03    0.445E-04
DAV:   7    -0.381820509475E+02    0.28681E-08   -0.12194E-08  6064   0.213E-03
  52 F= -.38182051E+02 E0= -.38180239E+02  d E =-.177655E-04
 trial-energy change:   -0.000018  1 .order   -0.000019   -0.000023   -0.000015
 step:   0.3076(harm=  0.3076)  dis= 0.00105  next Energy=   -38.182066 (dE=-0.330E-04)
 bond charge predicted
       N       E                     dE             d eps       ncg     rms          rms(c)
DAV:   1    -0.381820413620E+02    0.95884E-05   -0.19358E-02  9960   0.775E-01    0.365E-02
DAV:   2    -0.381820714827E+02   -0.30121E-04   -0.49362E-04 10840   0.170E-01    0.207E-02
DAV:   3    -0.381820669672E+02    0.45155E-05   -0.28995E-05 13648   0.567E-02    0.104E-02
DAV:   4    -0.381820653536E+02    0.16136E-05   -0.52643E-06 12092   0.419E-02    0.287E-03
DAV:   5    -0.381820654461E+02   -0.92438E-07   -0.19235E-06 10680   0.183E-02    0.123E-03
DAV:   6    -0.381820654757E+02   -0.29647E-07   -0.35700E-07 11964   0.544E-03    0.812E-04
DAV:   7    -0.381820654697E+02    0.59636E-08   -0.32902E-08  7760   0.304E-03
  53 F= -.38182065E+02 E0= -.38180247E+02  d E =-.322877E-04
 curvature:  -1.63 expect dE=-0.466E-04 dE for cont linesearch -0.915E-12
 trial: gam= 0.04045 g(F)=  0.249E-04 g(S)=  0.370E-05 ort = 0.357E-07 (trialstep = 0.149E+00)
 search vector abs. value=  0.324E-04
 bond charge predicted
       N       E                     dE             d eps       ncg     rms          rms(c)
DAV:   1    -0.381820692382E+02   -0.37625E-05   -0.16096E-04  9984   0.743E-02    0.515E-03
DAV:   2    -0.381820693653E+02   -0.12708E-06   -0.68890E-06 11088   0.289E-02    0.279E-03
DAV:   3    -0.381820693153E+02    0.50002E-07   -0.68043E-07 12092   0.108E-02    0.145E-03
DAV:   4    -0.381820692801E+02    0.35186E-07   -0.13065E-07 13164   0.821E-03    0.520E-04
DAV:   5    -0.381820692851E+02   -0.49913E-08   -0.46702E-08 10016   0.299E-03
  54 F= -.38182069E+02 E0= -.38180250E+02  d E =-.381535E-05
 ZBRENT: can't locate minimum, use default step
 trial-energy change:   -0.000004  1 .order   -0.000004   -0.000004   -0.000003
 step:   0.5956(harm=  0.7267)  dis= 0.00041  next Energy=   -38.182076 (dE=-0.104E-04)
 bond charge predicted
       N       E                     dE             d eps       ncg     rms          rms(c)
DAV:   1    -0.381820752783E+02   -0.59982E-05   -0.14464E-03  9948   0.223E-01    0.155E-02
DAV:   2    -0.381820765602E+02   -0.12818E-05   -0.61812E-05 11136   0.849E-02    0.833E-03
DAV:   3    -0.381820759668E+02    0.59340E-06   -0.59264E-06 12040   0.319E-02    0.432E-03
DAV:   4    -0.381820756713E+02    0.29546E-06   -0.11525E-06 13572   0.251E-02    0.150E-03
DAV:   5    -0.381820756884E+02   -0.17066E-07   -0.43913E-07 12584   0.881E-03    0.521E-04
DAV:   6    -0.381820756992E+02   -0.10808E-07   -0.82323E-08 10828   0.322E-03    0.347E-04
DAV:   7    -0.381820756978E+02    0.13961E-08   -0.67287E-09  6036   0.201E-03
  55 F= -.38182076E+02 E0= -.38180252E+02  d E =-.102280E-04
 curvature:  -0.39 expect dE=-0.863E-05 dE for cont linesearch -0.420E-06
 ZBRENT: extrapolating
 opt :   0.7520  next Energy=   -38.182076 (dE=-0.107E-04)
 bond charge predicted
       N       E                     dE             d eps       ncg     rms          rms(c)
DAV:   1    -0.381820760863E+02   -0.38717E-06   -0.17777E-04  9960   0.782E-02    0.541E-03
DAV:   2    -0.381820762303E+02   -0.14397E-06   -0.76050E-06 11120   0.306E-02    0.292E-03
DAV:   3    -0.381820761740E+02    0.56317E-07   -0.75248E-07 12076   0.114E-02    0.151E-03
DAV:   4    -0.381820761363E+02    0.37751E-07   -0.14625E-07 13260   0.879E-03    0.534E-04
DAV:   5    -0.381820761419E+02   -0.56543E-08   -0.52183E-08 10480   0.321E-03
  56 F= -.38182076E+02 E0= -.38180251E+02  d E =-.106722E-04
 curvature:  -0.43 expect dE=-0.141E-04 dE for cont linesearch -0.471E-09
 trial: gam= 1.15862 g(F)=  0.311E-04 g(S)=  0.182E-05 ort =-0.189E-06 (trialstep = 0.115E+00)
 search vector abs. value=  0.759E-04
 bond charge predicted
       N       E                     dE             d eps       ncg     rms          rms(c)
DAV:   1    -0.381820786778E+02   -0.25416E-05   -0.22745E-04 10020   0.931E-02    0.592E-03
DAV:   2    -0.381820791507E+02   -0.47289E-06   -0.11625E-05 11332   0.351E-02    0.301E-03
DAV:   3    -0.381820791575E+02   -0.67375E-08   -0.86136E-07 12212   0.105E-02    0.169E-03
DAV:   4    -0.381820791382E+02    0.19283E-07   -0.12542E-07 12360   0.797E-03    0.554E-04
DAV:   5    -0.381820791519E+02   -0.13695E-07   -0.53316E-08 10556   0.275E-03    0.177E-04
DAV:   6    -0.381820791510E+02    0.84992E-09   -0.83721E-09  5872   0.109E-03
  57 F= -.38182079E+02 E0= -.38180255E+02  d E =-.300913E-05
 trial-energy change:   -0.000003  1 .order   -0.000003   -0.000004   -0.000002
 step:   0.2056(harm=  0.2578)  dis= 0.00019  next Energy=   -38.182080 (dE=-0.388E-05)
 bond charge predicted
       N       E                     dE             d eps       ncg     rms          rms(c)
DAV:   1    -0.381820800101E+02   -0.85825E-06   -0.14203E-04 10016   0.735E-02    0.465E-03
DAV:   2    -0.381820803045E+02   -0.29438E-06   -0.72061E-06 11332   0.283E-02    0.240E-03
DAV:   3    -0.381820803173E+02   -0.12748E-07   -0.55131E-07 12232   0.873E-03    0.134E-03
DAV:   4    -0.381820803104E+02    0.69158E-08   -0.80666E-08 11524   0.648E-03
  58 F= -.38182080E+02 E0= -.38180256E+02  d E =-.416845E-05
 curvature:  -0.26 expect dE=-0.209E-05 dE for cont linesearch -0.114E-06
 ZBRENT: extrapolating
 opt :   0.2482  next Energy=   -38.182080 (dE=-0.429E-05)
 bond charge predicted
       N       E                     dE             d eps       ncg     rms          rms(c)
DAV:   1    -0.381820804117E+02   -0.94475E-07   -0.31018E-05 10016   0.348E-02    0.219E-03
DAV:   2    -0.381820804805E+02   -0.68805E-07   -0.15881E-06 11356   0.133E-02    0.113E-03
DAV:   3    -0.381820804938E+02   -0.13262E-07   -0.12413E-07 11828   0.433E-03    0.641E-04
DAV:   4    -0.381820804957E+02   -0.19195E-08   -0.15957E-08  6112   0.318E-03
  59 F= -.38182080E+02 E0= -.38180257E+02  d E =-.435382E-05
 curvature:  -0.28 expect dE=-0.257E-05 dE for cont linesearch -0.391E-08
 trial: gam= 0.25126 g(F)=  0.695E-05 g(S)=  0.227E-05 ort = 0.103E-05 (trialstep = 0.142E+00)
 search vector abs. value=  0.145E-04
 bond charge predicted
       N       E                     dE             d eps       ncg     rms          rms(c)
DAV:   1    -0.381820818179E+02   -0.13241E-05   -0.65978E-05 10556   0.468E-02    0.325E-03
DAV:   2    -0.381820818526E+02   -0.34770E-07   -0.22847E-06 10884   0.168E-02    0.138E-03
DAV:   3    -0.381820818074E+02    0.45281E-07   -0.17752E-07 12572   0.483E-03    0.728E-04
DAV:   4    -0.381820817849E+02    0.22444E-07   -0.29753E-08  8908   0.266E-03    0.205E-04
DAV:   5    -0.381820817786E+02    0.63496E-08   -0.10842E-08  5756   0.130E-03
  60 F= -.38182082E+02 E0= -.38180258E+02  d E =-.128283E-05
 ZBRENT: can't locate minimum, use default step
 trial-energy change:   -0.000001  1 .order   -0.000001   -0.000001   -0.000001
 step:   0.5662(harm=  1.8469)  dis= 0.00013  next Energy=   -38.182089 (dE=-0.875E-05)
 bond charge predicted
       N       E                     dE             d eps       ncg     rms          rms(c)
DAV:   1    -0.381820853464E+02   -0.35614E-05   -0.59433E-04 10432   0.141E-01    0.976E-03
DAV:   2    -0.381820855739E+02   -0.22758E-06   -0.20626E-05 10864   0.499E-02    0.412E-03
DAV:   3    -0.381820853500E+02    0.22393E-06   -0.16016E-06 12684   0.135E-02    0.217E-03
DAV:   4    -0.381820852257E+02    0.12429E-06   -0.25205E-07 12804   0.718E-03    0.620E-04
DAV:   5    -0.381820852073E+02    0.18430E-07   -0.84563E-08 10728   0.293E-03    0.208E-04
DAV:   6    -0.381820852066E+02    0.64801E-09   -0.82864E-09  6024   0.101E-03
  61 F= -.38182085E+02 E0= -.38180261E+02  d E =-.471090E-05
 curvature:  -0.62 expect dE=-0.332E-05 dE for cont linesearch -0.222E-05
 ZBRENT: increasing intervall
 opt :   1.4154  next Energy=   -38.182090 (dE=-0.957E-05)
 bond charge predicted
       N       E                     dE             d eps       ncg     rms          rms(c)
DAV:   1    -0.381820906014E+02   -0.53941E-05   -0.23781E-03 10468   0.281E-01    0.195E-02
DAV:   2    -0.381820914000E+02   -0.79860E-06   -0.82452E-05 10848   0.999E-02    0.824E-03
DAV:   3    -0.381820906772E+02    0.72277E-06   -0.63824E-06 12708   0.280E-02    0.437E-03
DAV:   4    -0.381820902526E+02    0.42454E-06   -0.10725E-06 12692   0.157E-02    0.122E-03
DAV:   5    -0.381820902156E+02    0.37012E-07   -0.35318E-07 10968   0.682E-03    0.412E-04
DAV:   6    -0.381820902144E+02    0.12451E-08   -0.41106E-08  8868   0.218E-03
  62 F= -.38182090E+02 E0= -.38180266E+02  d E =-.971866E-05
 curvature:  -1.35 expect dE=-0.523E-05 dE for cont linesearch -0.163E-05
 ZBRENT: increasing intervall
 opt :   3.1140  next Energy=   -38.182092 (dE=-0.117E-04)
 bond charge predicted
       N       E                     dE             d eps       ncg     rms          rms(c)
DAV:   1    -0.381820934904E+02   -0.32748E-05   -0.95127E-03 10476   0.563E-01    0.390E-02
DAV:   2    -0.381820964865E+02   -0.29961E-05   -0.32998E-04 10856   0.200E-01    0.165E-02
DAV:   3    -0.381820939546E+02    0.25319E-05   -0.25567E-05 12708   0.557E-02    0.873E-03
DAV:   4    -0.381820923936E+02    0.15610E-05   -0.42529E-06 12700   0.310E-02    0.245E-03
DAV:   5    -0.381820923175E+02    0.76077E-07   -0.14016E-06 10904   0.135E-02    0.823E-04
DAV:   6    -0.381820923196E+02   -0.21223E-08   -0.17508E-07 13204   0.435E-03    0.476E-04
DAV:   7    -0.381820923197E+02   -0.81400E-10   -0.21267E-08  7996   0.350E-03
  63 F= -.38182092E+02 E0= -.38180266E+02  d E =-.118240E-04
 curvature:  -1.62 expect dE=-0.213E-04 dE for cont linesearch -0.259E-06
 ZBRENT: bracketing found
 ZBRENT: interpolating
 opt :   2.6611  next Energy=   -38.182093 (dE=-0.122E-04)
 bond charge predicted
       N       E                     dE             d eps       ncg     rms          rms(c)
DAV:   1    -0.381820925574E+02   -0.23773E-06   -0.67489E-04 10484   0.150E-01    0.104E-02
DAV:   2    -0.381820927020E+02   -0.14463E-06   -0.23326E-05 10800   0.531E-02    0.440E-03
DAV:   3    -0.381820926421E+02    0.59931E-07   -0.17970E-06 12716   0.147E-02    0.232E-03
DAV:   4    -0.381820925789E+02    0.63168E-07   -0.29988E-07 12736   0.807E-03    0.647E-04
DAV:   5    -0.381820925982E+02   -0.19262E-07   -0.97601E-08 10764   0.353E-03    0.216E-04
DAV:   6    -0.381820925998E+02   -0.16230E-08   -0.10153E-08  6052   0.114E-03
  64 F= -.38182093E+02 E0= -.38180267E+02  d E =-.121041E-04
 curvature:  -2.16 expect dE=-0.192E-04 dE for cont linesearch -0.143E-07
 trial: gam= 1.06151 g(F)=  0.760E-05 g(S)=  0.130E-05 ort = 0.311E-06 (trialstep = 0.362E+00)
 search vector abs. value=  0.259E-04
 bond charge predicted
       N       E                     dE             d eps       ncg     rms          rms(c)
DAV:   1    -0.381820937819E+02   -0.11837E-05   -0.77647E-04  9860   0.155E-01    0.857E-03
DAV:   2    -0.381820951801E+02   -0.13983E-05   -0.25742E-05 10816   0.463E-02    0.445E-03
DAV:   3    -0.381820949784E+02    0.20172E-06   -0.17434E-06 11964   0.138E-02    0.260E-03
DAV:   4    -0.381820948494E+02    0.12903E-06   -0.28792E-07 12540   0.973E-03    0.830E-04
DAV:   5    -0.381820948296E+02    0.19776E-07   -0.99621E-08 10924   0.438E-03    0.277E-04
DAV:   6    -0.381820948304E+02   -0.77898E-09   -0.20329E-08  6988   0.197E-03
  65 F= -.38182095E+02 E0= -.38180267E+02  d E =-.223062E-05
 trial-energy change:   -0.000002  1 .order   -0.000002   -0.000003   -0.000001
 step:   0.5492(harm=  0.5492)  dis= 0.00028  next Energy=   -38.182095 (dE=-0.253E-05)
 bond charge predicted
       N       E                     dE             d eps       ncg     rms          rms(c)
DAV:   1    -0.381820949010E+02   -0.71433E-07   -0.20920E-04  9860   0.807E-02    0.446E-03
DAV:   2    -0.381820952923E+02   -0.39126E-06   -0.69550E-06 10832   0.247E-02    0.232E-03
DAV:   3    -0.381820952218E+02    0.70495E-07   -0.48324E-07 11928   0.840E-03    0.136E-03
DAV:   4    -0.381820951793E+02    0.42510E-07   -0.82928E-08 11400   0.569E-03    0.421E-04
DAV:   5    -0.381820951699E+02    0.94028E-08   -0.29478E-08  8020   0.262E-03
  66 F= -.38182095E+02 E0= -.38180267E+02  d E =-.257013E-05
 curvature:  -0.77 expect dE=-0.133E-04 dE for cont linesearch -0.154E-08
 trial: gam= 1.91556 g(F)=  0.117E-04 g(S)=  0.546E-05 ort = 0.227E-06 (trialstep = 0.914E-01)
 search vector abs. value=  0.113E-03
 bond charge predicted
       N       E                     dE             d eps       ncg     rms          rms(c)
DAV:   1    -0.381820963716E+02   -0.11923E-05   -0.21652E-04  9856   0.790E-02    0.410E-03
DAV:   2    -0.381820967646E+02   -0.39299E-06   -0.60649E-06 11600   0.198E-02    0.241E-03
DAV:   3    -0.381820967176E+02    0.47022E-07   -0.28598E-07 13464   0.668E-03    0.126E-03
DAV:   4    -0.381820966941E+02    0.23473E-07   -0.73546E-08 10904   0.415E-03    0.284E-04
DAV:   5    -0.381820966967E+02   -0.25539E-08   -0.30064E-08  8120   0.216E-03
  67 F= -.38182097E+02 E0= -.38180269E+02  d E =-.152677E-05
 ZBRENT: can't locate minimum, use default step
 trial-energy change:   -0.000002  1 .order   -0.000001   -0.000002   -0.000001
 step:   0.3657(harm=  0.5588)  dis= 0.00044  next Energy=   -38.182100 (dE=-0.493E-05)
 bond charge predicted
       N       E                     dE             d eps       ncg     rms          rms(c)
DAV:   1    -0.381820970519E+02   -0.35775E-06   -0.19472E-03  9856   0.237E-01    0.123E-02
DAV:   2    -0.381821004799E+02   -0.34280E-05   -0.54541E-05 11600   0.602E-02    0.727E-03
DAV:   3    -0.381820999133E+02    0.56656E-06   -0.26268E-06 13352   0.212E-02    0.382E-03
DAV:   4    -0.381820996683E+02    0.24500E-06   -0.72101E-07 12212   0.151E-02    0.862E-04
DAV:   5    -0.381820996841E+02   -0.15757E-07   -0.26151E-07 10764   0.728E-03    0.484E-04
DAV:   6    -0.381820996860E+02   -0.19190E-08   -0.46694E-08  9748   0.303E-03
  68 F= -.38182100E+02 E0= -.38180273E+02  d E =-.451609E-05
 curvature:  -1.49 expect dE=-0.502E-05 dE for cont linesearch -0.444E-06
 ZBRENT: increasing intervall
 opt :   0.9141  next Energy=   -38.182098 (dE=-0.280E-05)
 bond charge predicted
       N       E                     dE             d eps       ncg     rms          rms(c)
DAV:   1    -0.381820882381E+02    0.11446E-04   -0.77917E-03  9856   0.474E-01    0.245E-02
DAV:   2    -0.381821018806E+02   -0.13642E-04   -0.21857E-04 11576   0.122E-01    0.146E-02
DAV:   3    -0.381820994682E+02    0.24123E-05   -0.10664E-05 13344   0.442E-02    0.767E-03
DAV:   4    -0.381820984556E+02    0.10126E-05   -0.29758E-06 12240   0.318E-02    0.174E-03
DAV:   5    -0.381820985183E+02   -0.62694E-07   -0.10657E-06 10788   0.151E-02    0.971E-04
DAV:   6    -0.381820985281E+02   -0.97421E-08   -0.20265E-07 11264   0.608E-03    0.631E-04
DAV:   7    -0.381820985223E+02    0.58062E-08   -0.31831E-08  7832   0.458E-03
  69 F= -.38182099E+02 E0= -.38180274E+02  d E =-.335236E-05
 curvature:   5.75 expect dE= 0.108E-03 dE for cont linesearch  0.711E-05
 ZBRENT: bracketing found
 ZBRENT: interpolating
 opt :   0.5463  next Energy=   -38.182100 (dE=-0.504E-05)
 bond charge predicted
       N       E                     dE             d eps       ncg     rms          rms(c)
DAV:   1    -0.381820960345E+02    0.24936E-05   -0.34981E-03  9856   0.318E-01    0.164E-02
DAV:   2    -0.381821020376E+02   -0.60032E-05   -0.97791E-05 11572   0.812E-02    0.975E-03
DAV:   3    -0.381821008032E+02    0.12344E-05   -0.47347E-06 13316   0.291E-02    0.512E-03
DAV:   4    -0.381821003115E+02    0.49172E-06   -0.13124E-06 12180   0.209E-02    0.116E-03
DAV:   5    -0.381821003383E+02   -0.26766E-07   -0.46956E-07 10772   0.997E-03    0.645E-04
DAV:   6    -0.381821003424E+02   -0.41518E-08   -0.88272E-08 10696   0.407E-03
  70 F= -.38182100E+02 E0= -.38180274E+02  d E =-.517254E-05
 curvature:  -0.42 expect dE=-0.159E-05 dE for cont linesearch -0.272E-08
 trial: gam= 0.21148 g(F)=  0.364E-05 g(S)=  0.105E-06 ort = 0.851E-06 (trialstep = 0.182E+00)
 search vector abs. value=  0.917E-05
 bond charge predicted
       N       E                     dE             d eps       ncg     rms          rms(c)
DAV:   1    -0.381821008987E+02   -0.56044E-06   -0.66598E-05 10012   0.456E-02    0.198E-03
DAV:   2    -0.381821010266E+02   -0.12784E-06   -0.17929E-06 10712   0.112E-02    0.113E-03
DAV:   3    -0.381821010345E+02   -0.79626E-08   -0.12161E-07 12448   0.440E-03    0.621E-04
DAV:   4    -0.381821010334E+02    0.11519E-08   -0.22329E-08  6920   0.357E-03
  71 F= -.38182101E+02 E0= -.38180275E+02  d E =-.690940E-06
 ZBRENT: can't locate minimum, use default step
 trial-energy change:   -0.000001  1 .order   -0.000001   -0.000001   -0.000001
 step:   0.7296(harm=  1.5346)  dis= 0.00016  next Energy=   -38.182103 (dE=-0.301E-05)
 bond charge predicted
       N       E                     dE             d eps       ncg     rms          rms(c)
DAV:   1    -0.381821016136E+02   -0.57909E-06   -0.60178E-04  9996   0.137E-01    0.608E-03
DAV:   2    -0.381821027844E+02   -0.11708E-05   -0.16616E-05 10680   0.332E-02    0.340E-03
DAV:   3    -0.381821027642E+02    0.20182E-07   -0.10793E-06 12712   0.109E-02    0.191E-03
DAV:   4    -0.381821027204E+02    0.43831E-07   -0.20931E-07 13200   0.911E-03    0.496E-04
DAV:   5    -0.381821027306E+02   -0.10191E-07   -0.66860E-08 10716   0.409E-03    0.231E-04
DAV:   6    -0.381821027329E+02   -0.23133E-08   -0.13415E-08  6056   0.136E-03
  72 F= -.38182103E+02 E0= -.38180278E+02  d E =-.239045E-05
 curvature:  -1.16 expect dE=-0.302E-05 dE for cont linesearch -0.709E-06
 ZBRENT: increasing intervall
 opt :   1.8240  next Energy=   -38.182104 (dE=-0.379E-05)
 bond charge predicted
       N       E                     dE             d eps       ncg     rms          rms(c)
DAV:   1    -0.381821001170E+02    0.26136E-05   -0.24090E-03  9996   0.274E-01    0.121E-02
DAV:   2    -0.381821047954E+02   -0.46785E-05   -0.66490E-05 10684   0.667E-02    0.682E-03
DAV:   3    -0.381821046148E+02    0.18059E-06   -0.42993E-06 12588   0.217E-02    0.382E-03
DAV:   4    -0.381821044080E+02    0.20688E-06   -0.82896E-07 13300   0.182E-02    0.980E-04
DAV:   5    -0.381821044333E+02   -0.25343E-07   -0.26429E-07 10784   0.827E-03    0.469E-04
DAV:   6    -0.381821044407E+02   -0.73574E-08   -0.59319E-08  9632   0.282E-03
  73 F= -.38182104E+02 E0= -.38180282E+02  d E =-.409822E-05
 curvature:  -2.29 expect dE=-0.158E-04 dE for cont linesearch -0.173E-07
 trial: gam= 1.78330 g(F)=  0.538E-05 g(S)=  0.154E-05 ort = 0.263E-06 (trialstep = 0.126E+00)
 search vector abs. value=  0.370E-04
 bond charge predicted
       N       E                     dE             d eps       ncg     rms          rms(c)
DAV:   1    -0.381821048771E+02   -0.44376E-06   -0.13338E-04  9992   0.665E-02    0.316E-03
DAV:   2    -0.381821052026E+02   -0.32550E-06   -0.46889E-06 10640   0.183E-02    0.172E-03
DAV:   3    -0.381821051691E+02    0.33418E-07   -0.29348E-07 12820   0.508E-03    0.105E-03
DAV:   4    -0.381821051449E+02    0.24294E-07   -0.42104E-08 10328   0.315E-03    0.397E-04
DAV:   5    -0.381821051350E+02    0.98989E-08   -0.14107E-08  5984   0.151E-03
  74 F= -.38182105E+02 E0= -.38180282E+02  d E =-.694286E-06
 trial-energy change:   -0.000001  1 .order   -0.000001   -0.000001   -0.000000
 step:   0.2626(harm=  0.2626)  dis= 0.00013  next Energy=   -38.182105 (dE=-0.970E-06)
 bond charge predicted
       N       E                     dE             d eps       ncg     rms          rms(c)
DAV:   1    -0.381821050753E+02    0.69591E-07   -0.15403E-04  9992   0.714E-02    0.339E-03
DAV:   2    -0.381821054513E+02   -0.37605E-06   -0.53881E-06 10640   0.197E-02    0.186E-03
DAV:   3    -0.381821054141E+02    0.37247E-07   -0.33608E-07 12816   0.613E-03    0.113E-03
DAV:   4    -0.381821053882E+02    0.25826E-07   -0.55204E-08 10812   0.410E-03    0.429E-04
DAV:   5    -0.381821053779E+02    0.10295E-07   -0.16853E-08  5992   0.192E-03    0.106E-04
DAV:   6    -0.381821053784E+02   -0.48203E-09   -0.58637E-09  5576   0.907E-04
  75 F= -.38182105E+02 E0= -.38180281E+02  d E =-.937756E-06
 curvature:  -0.66 expect dE=-0.237E-05 dE for cont linesearch -0.419E-09
 trial: gam= 0.65413 g(F)=  0.310E-05 g(S)=  0.494E-06 ort =-0.154E-06 (trialstep = 0.154E+00)
 search vector abs. value=  0.192E-04
 bond charge predicted
       N       E                     dE             d eps       ncg     rms          rms(c)
DAV:   1    -0.381821057443E+02   -0.36640E-06   -0.10533E-04  9860   0.551E-02    0.250E-03
DAV:   2    -0.381821059457E+02   -0.20135E-06   -0.27248E-06 10960   0.119E-02    0.136E-03
DAV:   3    -0.381821059190E+02    0.26700E-07   -0.12059E-07 12508   0.299E-03    0.765E-04
DAV:   4    -0.381821059069E+02    0.12077E-07   -0.23182E-08  8028   0.289E-03    0.198E-04
DAV:   5    -0.381821059048E+02    0.21114E-08   -0.10878E-08  5736   0.159E-03
  76 F= -.38182106E+02 E0= -.38180282E+02  d E =-.526381E-06
 ZBRENT: can't locate minimum, use default step
 trial-energy change:   -0.000001  1 .order   -0.000001   -0.000001   -0.000001
 step:   0.6149(harm=  3.1702)  dis= 0.00026  next Energy=   -38.182111 (dE=-0.554E-05)
 bond charge predicted
       N       E                     dE             d eps       ncg     rms          rms(c)
DAV:   1    -0.381821057957E+02    0.11125E-06   -0.94718E-04  9860   0.165E-01    0.748E-03
DAV:   2    -0.381821075543E+02   -0.17587E-05   -0.24407E-05 10960   0.355E-02    0.406E-03
DAV:   3    -0.381821073682E+02    0.18617E-06   -0.10647E-06 12520   0.867E-03    0.229E-03
DAV:   4    -0.381821072749E+02    0.93281E-07   -0.23672E-07 13288   0.660E-03    0.584E-04
DAV:   5    -0.381821072678E+02    0.70518E-08   -0.85092E-08 10704   0.355E-03
  77 F= -.38182107E+02 E0= -.38180283E+02  d E =-.188940E-05
 curvature:  -2.46 expect dE=-0.874E-05 dE for cont linesearch -0.865E-06
 ZBRENT: increasing intervall
 opt :   1.5372  next Energy=   -38.182109 (dE=-0.361E-05)
 bond charge predicted
       N       E                     dE             d eps       ncg     rms          rms(c)
DAV:   1    -0.381821030968E+02    0.41781E-05   -0.37896E-03  9860   0.330E-01    0.150E-02
DAV:   2    -0.381821101058E+02   -0.70090E-05   -0.97732E-05 10952   0.711E-02    0.814E-03
DAV:   3    -0.381821094196E+02    0.68622E-06   -0.43014E-06 12532   0.174E-02    0.459E-03
DAV:   4    -0.381821090570E+02    0.36260E-06   -0.90796E-07 12956   0.135E-02    0.116E-03
DAV:   5    -0.381821090515E+02    0.54888E-08   -0.36736E-07 10732   0.693E-03    0.633E-04
DAV:   6    -0.381821090493E+02    0.22442E-08   -0.56609E-08 10516   0.309E-03
  78 F= -.38182109E+02 E0= -.38180285E+02  d E =-.367086E-05
 curvature:  -4.91 expect dE=-0.241E-04 dE for cont linesearch -0.391E-06
 ZBRENT: increasing intervall
 opt :   3.3818  next Energy=   -38.182109 (dE=-0.344E-05)
 bond charge predicted
       N       E                     dE             d eps       ncg     rms          rms(c)
DAV:   1    -0.381820850282E+02    0.24023E-04   -0.15157E-02  9860   0.661E-01    0.299E-02
DAV:   2    -0.381821129266E+02   -0.27898E-04   -0.39034E-04 10960   0.143E-01    0.163E-02
DAV:   3    -0.381821102657E+02    0.26609E-05   -0.17275E-05 12532   0.358E-02    0.921E-03
DAV:   4    -0.381821088457E+02    0.14201E-05   -0.36502E-06 13204   0.277E-02    0.233E-03
DAV:   5    -0.381821088592E+02   -0.13560E-07   -0.14543E-06 10724   0.143E-02    0.127E-03
DAV:   6    -0.381821088594E+02   -0.14825E-09   -0.24088E-07 12708   0.555E-03    0.810E-04
DAV:   7    -0.381821088577E+02    0.16507E-08   -0.33527E-08  9252   0.327E-03
  79 F= -.38182109E+02 E0= -.38180284E+02  d E =-.347930E-05
 curvature:   2.85 expect dE= 0.375E-04 dE for cont linesearch  0.354E-06
 ZBRENT: bracketing found
 ZBRENT: interpolating
 opt :   2.3578  next Energy=   -38.182110 (dE=-0.418E-05)
 bond charge predicted
       N       E                     dE             d eps       ncg     rms          rms(c)
DAV:   1    -0.381821022170E+02    0.66424E-05   -0.46652E-03  9860   0.366E-01    0.166E-02
DAV:   2    -0.381821106870E+02   -0.84700E-05   -0.11942E-04 10948   0.790E-02    0.901E-03
DAV:   3    -0.381821099519E+02    0.73512E-06   -0.52229E-06 12520   0.196E-02    0.510E-03
DAV:   4    -0.381821095387E+02    0.41321E-06   -0.11129E-06 12600   0.165E-02    0.126E-03
DAV:   5    -0.381821095754E+02   -0.36649E-07   -0.44710E-07 10728   0.858E-03    0.699E-04
DAV:   6    -0.381821095828E+02   -0.73969E-08   -0.84142E-08 12020   0.368E-03
  80 F= -.38182110E+02 E0= -.38180285E+02  d E =-.420434E-05
 curvature:  -4.09 expect dE=-0.314E-04 dE for cont linesearch -0.283E-08
 trial: gam= 1.37889 g(F)=  0.593E-05 g(S)=  0.174E-05 ort = 0.115E-06 (trialstep = 0.257E+00)
 search vector abs. value=  0.446E-04
 bond charge predicted
       N       E                     dE             d eps       ncg     rms          rms(c)
DAV:   1    -0.381821101747E+02   -0.59929E-06   -0.65899E-04  9856   0.139E-01    0.785E-03
DAV:   2    -0.381821111548E+02   -0.98014E-06   -0.17840E-05 11120   0.353E-02    0.481E-03
DAV:   3    -0.381821108357E+02    0.31909E-06   -0.10592E-06 13152   0.169E-02    0.235E-03
DAV:   4    -0.381821107657E+02    0.69968E-07   -0.35447E-07 11428   0.114E-02    0.631E-04
DAV:   5    -0.381821107683E+02   -0.25761E-08   -0.13437E-07 11680   0.577E-03    0.321E-04
DAV:   6    -0.381821107675E+02    0.82946E-09   -0.26966E-08  7200   0.262E-03
  81 F= -.38182111E+02 E0= -.38180288E+02  d E =-.118473E-05
 trial-energy change:   -0.000001  1 .order   -0.000001   -0.000002   -0.000000
 step:   0.2800(harm=  0.2864)  dis= 0.00018  next Energy=   -38.182111 (dE=-0.119E-05)
 bond charge predicted
       N       E                     dE             d eps       ncg     rms          rms(c)
DAV:   1    -0.381821107769E+02   -0.85843E-08   -0.55507E-06  9912   0.131E-02    0.735E-04
DAV:   2    -0.381821107903E+02   -0.13415E-07   -0.16817E-07 11064   0.421E-03    0.453E-04
DAV:   3    -0.381821107893E+02    0.10682E-08   -0.12242E-08  6772   0.241E-03
  82 F= -.38182111E+02 E0= -.38180288E+02  d E =-.120649E-05
 curvature:  -0.78 expect dE=-0.465E-05 dE for cont linesearch -0.767E-08
 trial: gam= 0.71448 g(F)=  0.445E-05 g(S)=  0.154E-05 ort = 0.663E-06 (trialstep = 0.261E+00)
 search vector abs. value=  0.297E-04
 bond charge predicted
       N       E                     dE             d eps       ncg     rms          rms(c)
DAV:   1    -0.381821129954E+02   -0.22050E-05   -0.42713E-04  9856   0.116E-01    0.958E-03
DAV:   2    -0.381821127771E+02    0.21826E-06   -0.13893E-05 10744   0.428E-02    0.490E-03
DAV:   3    -0.381821124016E+02    0.37547E-06   -0.13246E-06 12312   0.173E-02    0.232E-03
DAV:   4    -0.381821122854E+02    0.11624E-06   -0.29628E-07 12328   0.120E-02    0.482E-04
DAV:   5    -0.381821122839E+02    0.15380E-08   -0.12746E-07 12408   0.444E-03    0.248E-04
DAV:   6    -0.381821122833E+02    0.57844E-09   -0.17281E-08  6580   0.182E-03
  83 F= -.38182112E+02 E0= -.38180288E+02  d E =-.149403E-05
 ZBRENT: can't locate minimum, use default step
 trial-energy change:   -0.000001  1 .order   -0.000001   -0.000002   -0.000001
 step:   1.0453(harm=  1.1635)  dis= 0.00058  next Energy=   -38.182115 (dE=-0.376E-05)
 bond charge predicted
       N       E                     dE             d eps       ncg     rms          rms(c)
DAV:   1    -0.381821209914E+02   -0.87076E-05   -0.38491E-03  9856   0.350E-01    0.287E-02
DAV:   2    -0.381821189116E+02    0.20799E-05   -0.12629E-04 10744   0.131E-01    0.147E-02
DAV:   3    -0.381821159332E+02    0.29784E-05   -0.12212E-05 12336   0.546E-02    0.696E-03
DAV:   4    -0.381821149978E+02    0.93534E-06   -0.27676E-06 12324   0.370E-02    0.147E-03
DAV:   5    -0.381821150416E+02   -0.43818E-07   -0.11783E-06 12644   0.141E-02    0.752E-04
DAV:   6    -0.381821150444E+02   -0.27912E-08   -0.18168E-07 11100   0.585E-03    0.523E-04
DAV:   7    -0.381821150451E+02   -0.64119E-09   -0.20372E-08  6792   0.361E-03
  84 F= -.38182115E+02 E0= -.38180289E+02  d E =-.425581E-05
 curvature:  -2.63 expect dE=-0.609E-05 dE for cont linesearch -0.251E-06
 ZBRENT: increasing intervall
 opt :   2.6132  next Energy=   -38.182112 (dE=-0.168E-05)
 bond charge predicted
       N       E                     dE             d eps       ncg     rms          rms(c)
DAV:   1    -0.381821394407E+02   -0.24396E-04   -0.15397E-02  9856   0.700E-01    0.574E-02
DAV:   2    -0.381821308292E+02    0.86115E-05   -0.50463E-04 10736   0.262E-01    0.294E-02
DAV:   3    -0.381821193113E+02    0.11518E-04   -0.48762E-05 12360   0.108E-01    0.139E-02
DAV:   4    -0.381821156748E+02    0.36365E-05   -0.10956E-05 12332   0.737E-02    0.294E-03
DAV:   5    -0.381821158994E+02   -0.22461E-06   -0.46735E-06 12576   0.278E-02    0.150E-03
DAV:   6    -0.381821159257E+02   -0.26293E-07   -0.72129E-07 12020   0.116E-02    0.104E-03
DAV:   7    -0.381821159269E+02   -0.12224E-08   -0.88132E-08 10992   0.721E-03
  85 F= -.38182116E+02 E0= -.38180285E+02  d E =-.513763E-05
 curvature:  26.98 expect dE= 0.521E-03 dE for cont linesearch  0.223E-04
 ZBRENT: bracketing found
 ZBRENT: interpolating
 opt :   1.4432  next Energy=   -38.182115 (dE=-0.459E-05)
 bond charge predicted
       N       E                     dE             d eps       ncg     rms          rms(c)
DAV:   1    -0.381821281343E+02   -0.12209E-04   -0.85645E-03  9856   0.522E-01    0.428E-02
DAV:   2    -0.381821230629E+02    0.50714E-05   -0.28090E-04 10728   0.195E-01    0.219E-02
DAV:   3    -0.381821171437E+02    0.59192E-05   -0.26912E-05 12344   0.805E-02    0.104E-02
DAV:   4    -0.381821152453E+02    0.18985E-05   -0.60880E-06 12340   0.543E-02    0.216E-03
DAV:   5    -0.381821154412E+02   -0.19596E-06   -0.25804E-06 12552   0.208E-02    0.111E-03
DAV:   6    -0.381821154720E+02   -0.30745E-07   -0.39496E-07 12060   0.858E-03    0.771E-04
DAV:   7    -0.381821154695E+02    0.24579E-08   -0.45858E-08  9180   0.530E-03
  86 F= -.38182115E+02 E0= -.38180288E+02  d E =-.468026E-05
 curvature:  -0.41 expect dE=-0.154E-05 dE for cont linesearch -0.238E-08
 trial: gam= 0.74879 g(F)=  0.323E-05 g(S)=  0.551E-06 ort = 0.417E-06 (trialstep = 0.498E+00)
 search vector abs. value=  0.210E-04
 bond charge predicted
       N       E                     dE             d eps       ncg     rms          rms(c)
DAV:   1    -0.381821196860E+02   -0.42141E-05   -0.10562E-03  9872   0.184E-01    0.159E-02
DAV:   2    -0.381821185575E+02    0.11285E-05   -0.33346E-05 10792   0.661E-02    0.826E-03
DAV:   3    -0.381821175303E+02    0.10272E-05   -0.29147E-06 12500   0.235E-02    0.386E-03
DAV:   4    -0.381821172416E+02    0.28868E-06   -0.76949E-07 12124   0.145E-02    0.768E-04
DAV:   5    -0.381821172416E+02    0.36380E-11   -0.26293E-07 10776   0.641E-03    0.406E-04
DAV:   6    -0.381821172428E+02   -0.12196E-08   -0.39015E-08  8984   0.306E-03
  87 F= -.38182117E+02 E0= -.38180288E+02  d E =-.177332E-05
 trial-energy change:   -0.000002  1 .order   -0.000002   -0.000002   -0.000001
 step:   1.6999(harm=  1.6999)  dis= 0.00085  next Energy=   -38.182119 (dE=-0.348E-05)
 bond charge predicted
       N       E                     dE             d eps       ncg     rms          rms(c)
DAV:   1    -0.381821368192E+02   -0.19578E-04   -0.61664E-03  9880   0.445E-01    0.385E-02
DAV:   2    -0.381821298843E+02    0.69349E-05   -0.19403E-04 10812   0.160E-01    0.199E-02
DAV:   3    -0.381821242770E+02    0.56073E-05   -0.17137E-05 12544   0.574E-02    0.930E-03
DAV:   4    -0.381821227037E+02    0.15732E-05   -0.44966E-06 12008   0.356E-02    0.188E-03
DAV:   5    -0.381821227558E+02   -0.52027E-07   -0.15418E-06 10796   0.159E-02    0.999E-04
DAV:   6    -0.381821227679E+02   -0.12089E-07   -0.25937E-07 12004   0.792E-03    0.663E-04
DAV:   7    -0.381821227718E+02   -0.39754E-08   -0.38213E-08  8716   0.477E-03
  88 F= -.38182123E+02 E0= -.38180289E+02  d E =-.730233E-05
 curvature:  -4.37 expect dE=-0.770E-05 dE for cont linesearch -0.979E-07
 trial: gam= 0.28990 g(F)=  0.110E-05 g(S)=  0.666E-06 ort = 0.687E-06 (trialstep = 0.738E+00)
 search vector abs. value=  0.393E-05
 bond charge predicted
       N       E                     dE             d eps       ncg     rms          rms(c)
DAV:   1    -0.381821227491E+02    0.18799E-07   -0.41647E-04 10104   0.121E-01    0.930E-03
DAV:   2    -0.381821227972E+02   -0.48156E-07   -0.15129E-05 11336   0.409E-02    0.517E-03
DAV:   3    -0.381821225112E+02    0.28599E-06   -0.13444E-06 12944   0.135E-02    0.239E-03
DAV:   4    -0.381821224347E+02    0.76567E-07   -0.31318E-07 13192   0.807E-03    0.478E-04
DAV:   5    -0.381821224412E+02   -0.65115E-08   -0.99371E-08 10668   0.388E-03
  89 F= -.38182122E+02 E0= -.38180290E+02  d E =0.330664E-06
 trial-energy change:    0.000000  1 .order   -0.000001   -0.000001   -0.000001
 step:   1.2645(harm=  1.2645)  dis= 0.00020  next Energy=   -38.182124 (dE=-0.124E-05)
 bond charge predicted
       N       E                     dE             d eps       ncg     rms          rms(c)
DAV:   1    -0.381821228366E+02   -0.40190E-06   -0.21163E-04 10096   0.860E-02    0.668E-03
DAV:   2    -0.381821228584E+02   -0.21830E-07   -0.76896E-06 11336   0.291E-02    0.369E-03
DAV:   3    -0.381821227277E+02    0.13074E-06   -0.68295E-07 13000   0.956E-03    0.171E-03
DAV:   4    -0.381821226900E+02    0.37667E-07   -0.15486E-07 12264   0.561E-03    0.332E-04
DAV:   5    -0.381821226940E+02   -0.40536E-08   -0.53808E-08 10492   0.276E-03
  90 F= -.38182123E+02 E0= -.38180291E+02  d E =0.777982E-07
 curvature:  -1.27 expect dE=-0.944E-05 dE for cont linesearch -0.537E-10
 trial: gam= 4.37979 g(F)=  0.696E-05 g(S)=  0.490E-06 ort = 0.129E-07 (trialstep = 0.400E-01)
 search vector abs. value=  0.830E-04
 reached required accuracy - stopping structural energy minimisation
 writing wavefunctions
Tue Jan  4 00:05:05 CST 2022
