Mon Jan  3 23:30:55 CST 2022
 running on   48 total cores
 distrk:  each k-point on   48 cores,    1 groups
 distr:  one band on   24 cores,    2 groups
 using from now: INCAR     
 vasp.5.3.5 31Mar14 (build Jan 11 2016 19:50:55) complex                        
  
 POSCAR found type information on POSCAR  Zn Ga N  O 
 POSCAR found :  4 types and       8 ions
 scaLAPACK will be used

 ----------------------------------------------------------------------------- 
|                                                                             |
|           W    W    AA    RRRRR   N    N  II  N    N   GGGG   !!!           |
|           W    W   A  A   R    R  NN   N  II  NN   N  G    G  !!!           |
|           W    W  A    A  R    R  N N  N  II  N N  N  G       !!!           |
|           W WW W  AAAAAA  RRRRR   N  N N  II  N  N N  G  GGG   !            |
|           WW  WW  A    A  R   R   N   NN  II  N   NN  G    G                |
|           W    W  A    A  R    R  N    N  II  N    N   GGGG   !!!           |
|                                                                             |
|      For optimal performance we recommend to set                            |
|        NCORE= 4 - approx SQRT( number of cores)                             |
|      NCORE specifies how many cores store one orbital (NPAR=cpu/NCORE).     |
|      This setting can  greatly improve the performance of VASP for DFT.     |
|      The default, NPAR=number of cores might be grossly inefficient         |
|      on modern multi-core architectures or massively parallel machines.     |
|      Do your own testing !!!!                                               |
|      Unfortunately you need to use the default for GW and RPA calculations. |
|      (for HF NCORE is supported but not extensively tested yet)             |
|                                                                             |
 ----------------------------------------------------------------------------- 

 LDA part: xc-table for Pade appr. of Perdew
 POSCAR, INCAR and KPOINTS ok, starting setup
 WARNING: small aliasing (wrap around) errors must be expected
 FFT: planning ...
 WAVECAR not read
 entering main loop
       N       E                     dE             d eps       ncg     rms          rms(c)
DAV:   1     0.911190898713E+03    0.91119E+03   -0.42281E+04 10224   0.342E+03
DAV:   2     0.139619519962E+03   -0.77157E+03   -0.73983E+03  9944   0.797E+02
DAV:   3    -0.337674709595E+02   -0.17339E+03   -0.16874E+03 11000   0.271E+02
DAV:   4    -0.488274314499E+02   -0.15060E+02   -0.14886E+02 12384   0.812E+01
DAV:   5    -0.492936114061E+02   -0.46618E+00   -0.46404E+00 12404   0.143E+01    0.172E+01
DAV:   6    -0.409922972305E+02    0.83013E+01   -0.23266E+01 18736   0.842E+01    0.798E+00
DAV:   7    -0.417246914337E+02   -0.73239E+00   -0.93249E+00 10704   0.214E+01    0.554E+00
DAV:   8    -0.416267011107E+02    0.97990E-01   -0.13635E+00 15692   0.112E+01    0.241E+00
DAV:   9    -0.415825296533E+02    0.44171E-01   -0.20567E-01 14312   0.663E+00    0.102E+00
DAV:  10    -0.415726174977E+02    0.99122E-02   -0.96131E-02 13508   0.262E+00    0.394E-01
DAV:  11    -0.415735735138E+02   -0.95602E-03   -0.14623E-02 11524   0.113E+00    0.138E-01
DAV:  12    -0.415737874680E+02   -0.21395E-03   -0.24794E-03 15704   0.525E-01    0.616E-02
DAV:  13    -0.415738690322E+02   -0.81564E-04   -0.36535E-04 11016   0.202E-01    0.451E-02
DAV:  14    -0.415738906709E+02   -0.21639E-04   -0.87032E-05 12376   0.124E-01    0.245E-02
DAV:  15    -0.415738930520E+02   -0.23811E-05   -0.16416E-05 11416   0.386E-02    0.121E-02
DAV:  16    -0.415738944078E+02   -0.13557E-05   -0.12423E-05 12788   0.291E-02    0.398E-03
DAV:  17    -0.415738944247E+02   -0.16947E-07   -0.20004E-06 13292   0.143E-02    0.246E-03
DAV:  18    -0.415738944411E+02   -0.16422E-07   -0.36323E-07 11276   0.469E-03    0.145E-03
DAV:  19    -0.415738944397E+02    0.14575E-08   -0.58161E-08 11660   0.332E-03
   1 F= -.41573894E+02 E0= -.41572402E+02  d E =-.415739E+02
 curvature:   0.00 expect dE= 0.000E+00 dE for cont linesearch  0.000E+00
 trial: gam= 0.00000 g(F)=  0.172E-01 g(S)=  0.275E-01 ort = 0.000E+00 (trialstep = 0.100E+01)
 search vector abs. value=  0.447E-01
 bond charge predicted
       N       E                     dE             d eps       ncg     rms          rms(c)
DAV:   1    -0.416905358231E+02   -0.11664E+00   -0.65132E+00 11936   0.220E+01    0.260E+00
DAV:   2    -0.416250081842E+02    0.65528E-01   -0.74227E-01 12576   0.125E+01    0.132E+00
DAV:   3    -0.416006777444E+02    0.24330E-01   -0.58229E-02 13480   0.339E+00    0.620E-01
DAV:   4    -0.415928445621E+02    0.78332E-02   -0.19058E-02 14064   0.172E+00    0.989E-02
DAV:   5    -0.415932739121E+02   -0.42935E-03   -0.61881E-03 10672   0.662E-01    0.671E-02
DAV:   6    -0.415932541822E+02    0.19730E-04   -0.23234E-04 13648   0.171E-01    0.364E-02
DAV:   7    -0.415932459974E+02    0.81848E-05   -0.57837E-05 13812   0.138E-01    0.143E-02
DAV:   8    -0.415932468850E+02   -0.88763E-06   -0.21973E-05 12552   0.552E-02    0.554E-03
DAV:   9    -0.415932468011E+02    0.83915E-07   -0.41635E-06 12404   0.169E-02    0.393E-03
DAV:  10    -0.415932467114E+02    0.89720E-07   -0.93256E-07 12072   0.980E-03    0.167E-03
DAV:  11    -0.415932466451E+02    0.66329E-07   -0.32775E-07 11776   0.598E-03    0.541E-04
DAV:  12    -0.415932466367E+02    0.83955E-08   -0.35009E-08 10012   0.259E-03
   2 F= -.41593247E+02 E0= -.41591869E+02  d E =-.193522E-01
 trial-energy change:   -0.019352  1 .order   -0.018903   -0.044688    0.006881
 step:   0.8724(harm=  0.8666)  dis= 0.01496  next Energy=   -41.593685 (dE=-0.198E-01)
 bond charge predicted
       N       E                     dE             d eps       ncg     rms          rms(c)
DAV:   1    -0.415953175675E+02   -0.20709E-02   -0.10811E-01 12196   0.292E+00    0.333E-01
DAV:   2    -0.415942182706E+02    0.10993E-02   -0.12008E-02 12192   0.159E+00    0.171E-01
DAV:   3    -0.415938108549E+02    0.40742E-03   -0.96302E-04 13968   0.413E-01    0.789E-02
DAV:   4    -0.415936778300E+02    0.13302E-03   -0.28363E-04 14084   0.218E-01    0.131E-02
DAV:   5    -0.415936847170E+02   -0.68869E-05   -0.10497E-04 10660   0.853E-02    0.821E-03
DAV:   6    -0.415936846334E+02    0.83558E-07   -0.40289E-06 13616   0.207E-02    0.441E-03
DAV:   7    -0.415936846699E+02   -0.36502E-07   -0.86420E-07 13788   0.152E-02    0.181E-03
DAV:   8    -0.415936847596E+02   -0.89704E-07   -0.33309E-07 13328   0.727E-03    0.671E-04
DAV:   9    -0.415936847645E+02   -0.48913E-08   -0.69900E-08 11316   0.211E-03
   3 F= -.41593685E+02 E0= -.41592297E+02  d E =-.197903E-01
 curvature:  -0.43 expect dE=-0.441E-02 dE for cont linesearch -0.166E-08
 trial: gam= 0.22860 g(F)=  0.444E-02 g(S)=  0.576E-02 ort =-0.131E-04 (trialstep = 0.974E+00)
 search vector abs. value=  0.125E-01
 bond charge predicted
       N       E                     dE             d eps       ncg     rms          rms(c)
DAV:   1    -0.416179342172E+02   -0.24249E-01   -0.15226E+00 10772   0.890E+00    0.113E+00
DAV:   2    -0.416060900755E+02    0.11844E-01   -0.11481E-01 11848   0.460E+00    0.616E-01
DAV:   3    -0.415999759374E+02    0.61141E-02   -0.12362E-02 13688   0.157E+00    0.268E-01
DAV:   4    -0.415986879849E+02    0.12880E-02   -0.41032E-03 12124   0.750E-01    0.434E-02
DAV:   5    -0.415987693596E+02   -0.81375E-04   -0.11683E-03 10672   0.285E-01    0.283E-02
DAV:   6    -0.415987641079E+02    0.52517E-05   -0.66483E-05 12844   0.101E-01    0.160E-02
DAV:   7    -0.415987639345E+02    0.17338E-06   -0.18397E-05 12488   0.812E-02    0.690E-03
DAV:   8    -0.415987645638E+02   -0.62932E-06   -0.51142E-06 11820   0.245E-02    0.335E-03
DAV:   9    -0.415987646633E+02   -0.99418E-07   -0.74498E-07 12436   0.823E-03    0.206E-03
DAV:  10    -0.415987647622E+02   -0.98943E-07   -0.17661E-07 12160   0.542E-03    0.515E-04
DAV:  11    -0.415987647781E+02   -0.15925E-07   -0.54188E-08 11648   0.273E-03    0.226E-04
DAV:  12    -0.415987647808E+02   -0.26807E-08   -0.78709E-09  6100   0.113E-03
   4 F= -.41598765E+02 E0= -.41597325E+02  d E =-.508002E-02
 trial-energy change:   -0.005080  1 .order   -0.005061   -0.009939   -0.000183
 step:   0.9926(harm=  0.9928)  dis= 0.00485  next Energy=   -41.598766 (dE=-0.508E-02)
 bond charge predicted
       N       E                     dE             d eps       ncg     rms          rms(c)
DAV:   1    -0.415987732210E+02   -0.84428E-05   -0.52137E-04 11028   0.162E-01    0.209E-02
DAV:   2    -0.415987692146E+02    0.40064E-05   -0.38327E-05 11852   0.841E-02    0.114E-02
DAV:   3    -0.415987669483E+02    0.22663E-05   -0.41863E-06 13724   0.293E-02    0.495E-03
DAV:   4    -0.415987664640E+02    0.48432E-06   -0.14125E-06 12056   0.138E-02    0.795E-04
DAV:   5    -0.415987664969E+02   -0.32930E-07   -0.39847E-07 10736   0.535E-03    0.517E-04
DAV:   6    -0.415987665050E+02   -0.80399E-08   -0.20019E-08  7100   0.193E-03
   5 F= -.41598767E+02 E0= -.41597326E+02  d E =-.508174E-02
 curvature:  -0.61 expect dE=-0.168E-02 dE for cont linesearch -0.924E-11
 trial: gam= 0.26590 g(F)=  0.269E-02 g(S)=  0.707E-04 ort =-0.436E-06 (trialstep = 0.978E+00)
 search vector abs. value=  0.364E-02
 bond charge predicted
       N       E                     dE             d eps       ncg     rms          rms(c)
DAV:   1    -0.416016199553E+02   -0.28535E-02   -0.63941E-01 10008   0.528E+00    0.454E-01
DAV:   2    -0.416009718869E+02    0.64807E-03   -0.34864E-02 12064   0.226E+00    0.227E-01
DAV:   3    -0.416005434117E+02    0.42848E-03   -0.28256E-03 13508   0.672E-01    0.114E-01
DAV:   4    -0.416003240751E+02    0.21934E-03   -0.56252E-04 14236   0.328E-01    0.259E-02
DAV:   5    -0.416003302308E+02   -0.61557E-05   -0.20080E-04 11076   0.118E-01    0.108E-02
DAV:   6    -0.416003312134E+02   -0.98266E-06   -0.13911E-05 12760   0.328E-02    0.770E-03
DAV:   7    -0.416003314310E+02   -0.21754E-06   -0.20351E-06 13816   0.176E-02    0.377E-03
DAV:   8    -0.416003316124E+02   -0.18139E-06   -0.57614E-07 13148   0.111E-02    0.699E-04
DAV:   9    -0.416003316393E+02   -0.26922E-07   -0.17881E-07 13396   0.382E-03    0.573E-04
DAV:  10    -0.416003316485E+02   -0.92623E-08   -0.30721E-08 10040   0.176E-03
   6 F= -.41600332E+02 E0= -.41598889E+02  d E =-.156514E-02
 trial-energy change:   -0.001565  1 .order   -0.001562   -0.002696   -0.000428
 step:   1.1627(harm=  1.1627)  dis= 0.00481  next Energy=   -41.600369 (dE=-0.160E-02)
 bond charge predicted
       N       E                     dE             d eps       ncg     rms          rms(c)
DAV:   1    -0.416004195225E+02   -0.87883E-04   -0.22732E-02  9968   0.990E-01    0.857E-02
DAV:   2    -0.416003967765E+02    0.22746E-04   -0.12387E-03 12096   0.424E-01    0.426E-02
DAV:   3    -0.416003809538E+02    0.15823E-04   -0.10016E-04 13452   0.126E-01    0.214E-02
DAV:   4    -0.416003728491E+02    0.81047E-05   -0.19800E-05 14220   0.621E-02    0.483E-03
DAV:   5    -0.416003730217E+02   -0.17259E-06   -0.72501E-06 11024   0.226E-02    0.206E-03
DAV:   6    -0.416003730907E+02   -0.69059E-07   -0.49524E-07 12720   0.629E-03    0.145E-03
DAV:   7    -0.416003731326E+02   -0.41881E-07   -0.73577E-08 12568   0.338E-03    0.716E-04
DAV:   8    -0.416003731710E+02   -0.38350E-07   -0.18094E-08  6568   0.213E-03    0.123E-04
DAV:   9    -0.416003731749E+02   -0.39740E-08   -0.80412E-09  6148   0.863E-04
   7 F= -.41600373E+02 E0= -.41598931E+02  d E =-.160667E-02
 curvature:  -0.77 expect dE=-0.720E-03 dE for cont linesearch -0.539E-08
 trial: gam= 0.33651 g(F)=  0.663E-03 g(S)=  0.274E-03 ort =-0.506E-05 (trialstep = 0.102E+01)
 search vector abs. value=  0.135E-02
 bond charge predicted
       N       E                     dE             d eps       ncg     rms          rms(c)
DAV:   1    -0.416016251999E+02   -0.12520E-02   -0.25001E-01  9968   0.338E+00    0.313E-01
DAV:   2    -0.416013042862E+02    0.32091E-03   -0.15227E-02 12068   0.156E+00    0.152E-01
DAV:   3    -0.416010603142E+02    0.24397E-03   -0.13585E-03 12588   0.421E-01    0.775E-02
DAV:   4    -0.416009498356E+02    0.11048E-03   -0.24010E-04 14116   0.248E-01    0.137E-02
DAV:   5    -0.416009555286E+02   -0.56930E-05   -0.87228E-05 10596   0.816E-02    0.800E-03
DAV:   6    -0.416009553165E+02    0.21204E-06   -0.45284E-06 13264   0.212E-02    0.481E-03
DAV:   7    -0.416009551301E+02    0.18639E-06   -0.95368E-07 12400   0.165E-02    0.162E-03
DAV:   8    -0.416009550972E+02    0.32926E-07   -0.27013E-07 12380   0.736E-03    0.639E-04
DAV:   9    -0.416009550873E+02    0.98526E-08   -0.49204E-08 10728   0.183E-03
   8 F= -.41600955E+02 E0= -.41599480E+02  d E =-.581912E-03
 trial-energy change:   -0.000582  1 .order   -0.000578   -0.000949   -0.000206
 step:   1.2849(harm=  1.2968)  dis= 0.00625  next Energy=   -41.600983 (dE=-0.609E-03)
 bond charge predicted
       N       E                     dE             d eps       ncg     rms          rms(c)
DAV:   1    -0.416010308968E+02   -0.75800E-04   -0.17673E-02  9976   0.901E-01    0.832E-02
DAV:   2    -0.416010079468E+02    0.22950E-04   -0.10778E-03 12052   0.414E-01    0.405E-02
DAV:   3    -0.416009912413E+02    0.16705E-04   -0.96336E-05 12604   0.112E-01    0.206E-02
DAV:   4    -0.416009837229E+02    0.75184E-05   -0.16948E-05 14136   0.659E-02    0.366E-03
DAV:   5    -0.416009841710E+02   -0.44807E-06   -0.61695E-06 10612   0.215E-02    0.212E-03
DAV:   6    -0.416009841193E+02    0.51676E-07   -0.31076E-07 13224   0.565E-03    0.127E-03
DAV:   7    -0.416009840732E+02    0.46128E-07   -0.68413E-08 11624   0.434E-03    0.398E-04
DAV:   8    -0.416009840633E+02    0.99280E-08   -0.16254E-08  6636   0.202E-03
   9 F= -.41600984E+02 E0= -.41599500E+02  d E =-.610888E-03
 curvature:  -0.93 expect dE=-0.265E-03 dE for cont linesearch -0.300E-07
 trial: gam= 0.29176 g(F)=  0.253E-03 g(S)=  0.318E-04 ort = 0.658E-05 (trialstep = 0.107E+01)
 search vector abs. value=  0.403E-03
 bond charge predicted
       N       E                     dE             d eps       ncg     rms          rms(c)
DAV:   1    -0.416009670055E+02    0.17068E-04   -0.99258E-02  9864   0.186E+00    0.939E-02
DAV:   2    -0.416012072205E+02   -0.24022E-03   -0.37966E-03 11664   0.580E-01    0.541E-02
DAV:   3    -0.416012029922E+02    0.42283E-05   -0.25870E-04 12232   0.177E-01    0.289E-02
DAV:   4    -0.416011907332E+02    0.12259E-04   -0.43294E-05 14172   0.983E-02    0.103E-02
DAV:   5    -0.416011905174E+02    0.21582E-06   -0.14711E-05 12008   0.339E-02    0.372E-03
DAV:   6    -0.416011905999E+02   -0.82437E-07   -0.17677E-06 11804   0.129E-02    0.238E-03
DAV:   7    -0.416011906146E+02   -0.14767E-07   -0.17826E-07 12584   0.749E-03    0.148E-03
DAV:   8    -0.416011906465E+02   -0.31915E-07   -0.99199E-08 12312   0.304E-03    0.451E-04
DAV:   9    -0.416011906521E+02   -0.55215E-08   -0.26640E-08  9128   0.177E-03
  10 F= -.41601191E+02 E0= -.41599702E+02  d E =-.206589E-03
 trial-energy change:   -0.000207  1 .order   -0.000211   -0.000306   -0.000116
 step:   1.9557(harm=  1.7233)  dis= 0.00458  next Energy=   -41.601236 (dE=-0.252E-03)
 bond charge predicted
       N       E                     dE             d eps       ncg     rms          rms(c)
DAV:   1    -0.416010625629E+02    0.12808E-03   -0.68279E-02  9872   0.154E+00    0.779E-02
DAV:   2    -0.416012277187E+02   -0.16516E-03   -0.26089E-03 11660   0.480E-01    0.448E-02
DAV:   3    -0.416012246483E+02    0.30703E-05   -0.17737E-04 12204   0.147E-01    0.239E-02
DAV:   4    -0.416012161513E+02    0.84970E-05   -0.29723E-05 14172   0.816E-02    0.854E-03
DAV:   5    -0.416012159750E+02    0.17631E-06   -0.10125E-05 12004   0.282E-02    0.308E-03
DAV:   6    -0.416012160332E+02   -0.58199E-07   -0.12078E-06 11796   0.107E-02    0.197E-03
DAV:   7    -0.416012160465E+02   -0.13348E-07   -0.12160E-07 12548   0.618E-03    0.122E-03
DAV:   8    -0.416012160740E+02   -0.27461E-07   -0.67900E-08 11036   0.252E-03    0.371E-04
DAV:   9    -0.416012160776E+02   -0.36584E-08   -0.16596E-08  6872   0.149E-03
  11 F= -.41601216E+02 E0= -.41599723E+02  d E =-.232014E-03
 curvature:  -1.06 expect dE=-0.184E-03 dE for cont linesearch -0.384E-05
 ZBRENT: interpolating
 opt :   1.7250  next Energy=   -41.601220 (dE=-0.236E-03)
 bond charge predicted
       N       E                     dE             d eps       ncg     rms          rms(c)
DAV:   1    -0.416012098705E+02    0.62035E-05   -0.46205E-03  9872   0.400E-01    0.203E-02
DAV:   2    -0.416012210120E+02   -0.11142E-04   -0.17638E-04 11664   0.124E-01    0.116E-02
DAV:   3    -0.416012210514E+02   -0.39382E-07   -0.11950E-05 12136   0.380E-02    0.622E-03
DAV:   4    -0.416012206356E+02    0.41579E-06   -0.20000E-06 14108   0.213E-02    0.222E-03
DAV:   5    -0.416012206922E+02   -0.56561E-07   -0.68839E-07 11992   0.738E-03    0.799E-04
DAV:   6    -0.416012206926E+02   -0.37517E-09   -0.82496E-08 11192   0.276E-03
  12 F= -.41601221E+02 E0= -.41599729E+02  d E =-.236629E-03
 curvature:  -1.22 expect dE=-0.158E-03 dE for cont linesearch -0.882E-09
 trial: gam= 0.45951 g(F)=  0.116E-03 g(S)=  0.138E-04 ort = 0.541E-06 (trialstep = 0.120E+01)
 search vector abs. value=  0.215E-03
 bond charge predicted
       N       E                     dE             d eps       ncg     rms          rms(c)
DAV:   1    -0.416012418451E+02   -0.21153E-04   -0.66318E-02  9892   0.147E+00    0.687E-02
DAV:   2    -0.416013524592E+02   -0.11061E-03   -0.19624E-03 11832   0.397E-01    0.380E-02
DAV:   3    -0.416013444863E+02    0.79729E-05   -0.11214E-04 12648   0.119E-01    0.200E-02
DAV:   4    -0.416013372682E+02    0.72181E-05   -0.22481E-05 15188   0.698E-02    0.610E-03
DAV:   5    -0.416013379386E+02   -0.67038E-06   -0.97166E-06 10784   0.279E-02    0.278E-03
DAV:   6    -0.416013378719E+02    0.66666E-07   -0.75695E-07 13248   0.764E-03    0.151E-03
DAV:   7    -0.416013378309E+02    0.40993E-07   -0.98796E-08 13036   0.430E-03    0.822E-04
DAV:   8    -0.416013378139E+02    0.17035E-07   -0.36432E-08 10240   0.170E-03    0.221E-04
DAV:   9    -0.416013378153E+02   -0.13820E-08   -0.81752E-09  6152   0.940E-04
  13 F= -.41601338E+02 E0= -.41599852E+02  d E =-.117123E-03
 trial-energy change:   -0.000117  1 .order   -0.000116   -0.000156   -0.000077
 step:   2.2679(harm=  2.3656)  dis= 0.00287  next Energy=   -41.601372 (dE=-0.152E-03)
 bond charge predicted
       N       E                     dE             d eps       ncg     rms          rms(c)
DAV:   1    -0.416012989623E+02    0.38852E-04   -0.52482E-02  9892   0.131E+00    0.611E-02
DAV:   2    -0.416013864892E+02   -0.87527E-04   -0.15540E-03 11844   0.353E-01    0.338E-02
DAV:   3    -0.416013802945E+02    0.61947E-05   -0.88914E-05 12640   0.106E-01    0.177E-02
DAV:   4    -0.416013746426E+02    0.56520E-05   -0.17800E-05 15180   0.620E-02    0.542E-03
DAV:   5    -0.416013751844E+02   -0.54188E-06   -0.76636E-06 10780   0.248E-02    0.247E-03
DAV:   6    -0.416013751284E+02    0.56005E-07   -0.59742E-07 13236   0.682E-03    0.134E-03
DAV:   7    -0.416013750935E+02    0.34988E-07   -0.77545E-08 11924   0.382E-03    0.720E-04
DAV:   8    -0.416013750785E+02    0.14978E-07   -0.27538E-08  8436   0.152E-03    0.189E-04
DAV:   9    -0.416013750793E+02   -0.81809E-09   -0.73327E-09  6108   0.956E-04
  14 F= -.41601375E+02 E0= -.41599895E+02  d E =-.154387E-03
 curvature:  -1.94 expect dE=-0.266E-03 dE for cont linesearch -0.219E-06
 trial: gam= 1.01132 g(F)=  0.125E-03 g(S)=  0.117E-04 ort = 0.493E-05 (trialstep = 0.830E+00)
 search vector abs. value=  0.367E-03
 bond charge predicted
       N       E                     dE             d eps       ncg     rms          rms(c)
DAV:   1    -0.416013716227E+02    0.34557E-05   -0.50871E-02 10140   0.129E+00    0.426E-02
DAV:   2    -0.416014606307E+02   -0.89008E-04   -0.11402E-03 11760   0.281E-01    0.241E-02
DAV:   3    -0.416014561752E+02    0.44555E-05   -0.55109E-05 13084   0.856E-02    0.136E-02
DAV:   4    -0.416014530196E+02    0.31555E-05   -0.11006E-05 13508   0.439E-02    0.333E-03
DAV:   5    -0.416014531954E+02   -0.17576E-06   -0.35782E-06 10764   0.184E-02    0.181E-03
DAV:   6    -0.416014532152E+02   -0.19757E-07   -0.40993E-07 12336   0.709E-03    0.117E-03
DAV:   7    -0.416014532263E+02   -0.11120E-07   -0.58323E-08 10688   0.435E-03    0.581E-04
DAV:   8    -0.416014532451E+02   -0.18810E-07   -0.25953E-08  8092   0.161E-03    0.140E-04
DAV:   9    -0.416014532478E+02   -0.27549E-08   -0.83153E-09  6068   0.725E-04
  15 F= -.41601453E+02 E0= -.41599968E+02  d E =-.781686E-04
 trial-energy change:   -0.000078  1 .order   -0.000078   -0.000118   -0.000038
 step:   1.2028(harm=  1.2224)  dis= 0.00219  next Energy=   -41.601462 (dE=-0.867E-04)
 bond charge predicted
       N       E                     dE             d eps       ncg     rms          rms(c)
DAV:   1    -0.416014460781E+02    0.71669E-05   -0.10292E-02 10136   0.579E-01    0.192E-02
DAV:   2    -0.416014640435E+02   -0.17965E-04   -0.22971E-04 11792   0.126E-01    0.108E-02
DAV:   3    -0.416014630621E+02    0.98139E-06   -0.10920E-05 13092   0.381E-02    0.609E-03
DAV:   4    -0.416014624088E+02    0.65333E-06   -0.22067E-06 13468   0.197E-02    0.149E-03
DAV:   5    -0.416014624378E+02   -0.29022E-07   -0.72548E-07 10760   0.833E-03    0.816E-04
DAV:   6    -0.416014624446E+02   -0.68057E-08   -0.81819E-08 12052   0.316E-03
  16 F= -.41601462E+02 E0= -.41599974E+02  d E =-.873653E-04
 curvature:  -1.58 expect dE=-0.120E-03 dE for cont linesearch -0.189E-07
 trial: gam= 0.59412 g(F)=  0.489E-04 g(S)=  0.271E-04 ort = 0.210E-05 (trialstep = 0.904E+00)
 search vector abs. value=  0.208E-03
 bond charge predicted
       N       E                     dE             d eps       ncg     rms          rms(c)
DAV:   1    -0.416014777051E+02   -0.15267E-04   -0.32722E-02 10000   0.101E+00    0.452E-02
DAV:   2    -0.416015181206E+02   -0.40416E-04   -0.76911E-04 12040   0.274E-01    0.263E-02
DAV:   3    -0.416015085052E+02    0.96155E-05   -0.61565E-05 12508   0.102E-01    0.137E-02
DAV:   4    -0.416015056815E+02    0.28237E-05   -0.14167E-05 13868   0.640E-02    0.277E-03
DAV:   5    -0.416015060763E+02   -0.39485E-06   -0.50811E-06 10732   0.230E-02    0.204E-03
DAV:   6    -0.416015060717E+02    0.45879E-08   -0.43714E-07 12108   0.815E-03    0.106E-03
DAV:   7    -0.416015060830E+02   -0.11235E-07   -0.10204E-07 12336   0.517E-03    0.482E-04
DAV:   8    -0.416015060913E+02   -0.83246E-08   -0.31812E-08  9340   0.232E-03
  17 F= -.41601506E+02 E0= -.41600024E+02  d E =-.436467E-04
 trial-energy change:   -0.000044  1 .order   -0.000043   -0.000070   -0.000017
 step:   1.1691(harm=  1.1854)  dis= 0.00194  next Energy=   -41.601509 (dE=-0.461E-04)
 bond charge predicted
       N       E                     dE             d eps       ncg     rms          rms(c)
DAV:   1    -0.416015064563E+02   -0.37334E-06   -0.28087E-03 10008   0.297E-01    0.132E-02
DAV:   2    -0.416015098995E+02   -0.34432E-05   -0.65504E-05 12048   0.795E-02    0.772E-03
DAV:   3    -0.416015090282E+02    0.87132E-06   -0.52707E-06 12532   0.294E-02    0.402E-03
DAV:   4    -0.416015087821E+02    0.24605E-06   -0.12145E-06 13892   0.187E-02    0.812E-04
DAV:   5    -0.416015088154E+02   -0.33209E-07   -0.43404E-07 10748   0.677E-03    0.604E-04
DAV:   6    -0.416015088163E+02   -0.97589E-09   -0.35946E-08  8732   0.239E-03
  18 F= -.41601509E+02 E0= -.41600028E+02  d E =-.463717E-04
 curvature:  -1.59 expect dE=-0.230E-04 dE for cont linesearch -0.472E-08
 trial: gam= 0.18653 g(F)=  0.131E-04 g(S)=  0.132E-05 ort = 0.786E-06 (trialstep = 0.957E+00)
 search vector abs. value=  0.220E-04
 bond charge predicted
       N       E                     dE             d eps       ncg     rms          rms(c)
DAV:   1    -0.416015201859E+02   -0.11371E-04   -0.43243E-03  9872   0.366E-01    0.222E-02
DAV:   2    -0.416015215042E+02   -0.13183E-05   -0.10045E-04 11664   0.107E-01    0.121E-02
DAV:   3    -0.416015200433E+02    0.14610E-05   -0.82007E-06 12716   0.335E-02    0.605E-03
DAV:   4    -0.416015194773E+02    0.56595E-06   -0.17557E-06 12560   0.186E-02    0.112E-03
DAV:   5    -0.416015195346E+02   -0.57290E-07   -0.62755E-07 10712   0.744E-03    0.725E-04
DAV:   6    -0.416015195220E+02    0.12633E-07   -0.40350E-08  9664   0.182E-03    0.431E-04
DAV:   7    -0.416015195108E+02    0.11110E-07   -0.61635E-09  6120   0.185E-03    0.124E-04
DAV:   8    -0.416015195089E+02    0.19654E-08   -0.46802E-09  5840   0.932E-04
  19 F= -.41601520E+02 E0= -.41600040E+02  d E =-.106926E-04
 trial-energy change:   -0.000011  1 .order   -0.000011   -0.000014   -0.000007
 step:   1.7409(harm=  1.9369)  dis= 0.00091  next Energy=   -41.601522 (dE=-0.137E-04)
 bond charge predicted
       N       E                     dE             d eps       ncg     rms          rms(c)
DAV:   1    -0.416015209597E+02   -0.14489E-05   -0.28988E-03  9872   0.300E-01    0.182E-02
DAV:   2    -0.416015218146E+02   -0.85493E-06   -0.67168E-05 11648   0.874E-02    0.988E-03
DAV:   3    -0.416015208626E+02    0.95205E-06   -0.55261E-06 12700   0.273E-02    0.495E-03
DAV:   4    -0.416015204926E+02    0.37001E-06   -0.11759E-06 12572   0.153E-02    0.918E-04
DAV:   5    -0.416015205325E+02   -0.39901E-07   -0.42411E-07 10704   0.603E-03    0.598E-04
DAV:   6    -0.416015205216E+02    0.10865E-07   -0.25198E-08  8084   0.145E-03    0.342E-04
DAV:   7    -0.416015205126E+02    0.90204E-08   -0.48161E-09  5984   0.135E-03
  20 F= -.41601521E+02 E0= -.41600042E+02  d E =-.116963E-04
 curvature:  -1.40 expect dE=-0.501E-05 dE for cont linesearch -0.129E-06
 ZBRENT: extrapolating
 opt :   1.9281  next Energy=   -41.601521 (dE=-0.118E-04)
 bond charge predicted
       N       E                     dE             d eps       ncg     rms          rms(c)
DAV:   1    -0.416015206773E+02   -0.15570E-06   -0.16550E-04  9896   0.716E-02    0.436E-03
DAV:   2    -0.416015207107E+02   -0.33349E-07   -0.38356E-06 11640   0.209E-02    0.236E-03
DAV:   3    -0.416015206813E+02    0.29374E-07   -0.32189E-07 12712   0.649E-03    0.119E-03
DAV:   4    -0.416015206711E+02    0.10205E-07   -0.67533E-08 11576   0.366E-03    0.222E-04
DAV:   5    -0.416015206746E+02   -0.35329E-08   -0.23639E-08  7348   0.146E-03
  21 F= -.41601521E+02 E0= -.41600043E+02  d E =-.118583E-04
 curvature:  -1.44 expect dE=-0.603E-05 dE for cont linesearch -0.202E-10
 trial: gam= 0.30184 g(F)=  0.258E-05 g(S)=  0.159E-05 ort = 0.175E-07 (trialstep = 0.115E+01)
 search vector abs. value=  0.619E-05
 bond charge predicted
       N       E                     dE             d eps       ncg     rms          rms(c)
DAV:   1    -0.416015388863E+02   -0.18215E-04   -0.15335E-03 10744   0.318E-01    0.307E-02
DAV:   2    -0.416015333744E+02    0.55119E-05   -0.14191E-04 11704   0.163E-01    0.142E-02
DAV:   3    -0.416015310588E+02    0.23156E-05   -0.10991E-05 13584   0.425E-02    0.699E-03
DAV:   4    -0.416015298523E+02    0.12066E-05   -0.21394E-06 14176   0.213E-02    0.160E-03
DAV:   5    -0.416015298439E+02    0.83842E-08   -0.84075E-07 10660   0.776E-03    0.780E-04
DAV:   6    -0.416015298597E+02   -0.15782E-07   -0.40872E-08 10700   0.212E-03    0.537E-04
DAV:   7    -0.416015298737E+02   -0.14074E-07   -0.66542E-09  6012   0.178E-03    0.250E-04
DAV:   8    -0.416015298872E+02   -0.13457E-07   -0.45827E-09  5784   0.656E-04    0.611E-05
DAV:   9    -0.416015298870E+02    0.22692E-09   -0.13534E-09  5640   0.323E-04
  22 F= -.41601530E+02 E0= -.41600049E+02  d E =-.921237E-05
 trial-energy change:   -0.000009  1 .order   -0.000002   -0.000005    0.000001
 step:   1.1285(harm=  0.9585)  dis= 0.00018  next Energy=   -41.601530 (dE=-0.922E-05)
 bond charge predicted
       N       E                     dE             d eps       ncg     rms          rms(c)
DAV:   1    -0.416015299007E+02   -0.13513E-07   -0.60814E-07 10860   0.638E-03    0.613E-04
DAV:   2    -0.416015298969E+02    0.38344E-08   -0.57793E-08 10020   0.328E-03
  23 F= -.41601530E+02 E0= -.41600049E+02  d E =-.922228E-05
 curvature:  -0.16 expect dE=-0.279E-06 dE for cont linesearch -0.894E-08
 trial: gam= 0.56899 g(F)=  0.144E-05 g(S)=  0.322E-06 ort =-0.591E-06 (trialstep = 0.115E+01)
 search vector abs. value=  0.309E-05
 bond charge predicted
       N       E                     dE             d eps       ncg     rms          rms(c)
DAV:   1    -0.416015291442E+02    0.75647E-06   -0.89642E-04  9924   0.163E-01    0.657E-03
DAV:   2    -0.416015309826E+02   -0.18383E-05   -0.23289E-05 12084   0.359E-02    0.366E-03
DAV:   3    -0.416015308406E+02    0.14192E-06   -0.94550E-07 11960   0.104E-02    0.227E-03
DAV:   4    -0.416015307756E+02    0.65039E-07   -0.25202E-07 13932   0.105E-02    0.588E-04
DAV:   5    -0.416015307802E+02   -0.46007E-08   -0.12349E-07 11288   0.425E-03    0.297E-04
DAV:   6    -0.416015307799E+02    0.35106E-09   -0.97070E-09  6068   0.104E-03
  24 F= -.41601531E+02 E0= -.41600051E+02  d E =-.882977E-06
 trial-energy change:   -0.000001  1 .order   -0.000001   -0.000002   -0.000000
 step:   1.1852(harm=  1.1852)  dis= 0.00018  next Energy=   -41.601531 (dE=-0.844E-06)
 bond charge predicted
       N       E                     dE             d eps       ncg     rms          rms(c)
DAV:   1    -0.416015307842E+02   -0.39499E-08   -0.10497E-06 10232   0.559E-03    0.247E-04
DAV:   2    -0.416015307872E+02   -0.30577E-08   -0.31237E-08  9692   0.131E-03
  25 F= -.41601531E+02 E0= -.41600051E+02  d E =-.890336E-06
 curvature:  -1.29 expect dE=-0.150E-05 dE for cont linesearch -0.305E-09
 trial: gam= 0.27103 g(F)=  0.502E-06 g(S)=  0.664E-06 ort = 0.271E-07 (trialstep = 0.115E+01)
 search vector abs. value=  0.141E-05
 bond charge predicted
       N       E                     dE             d eps       ncg     rms          rms(c)
DAV:   1    -0.416015284812E+02    0.23030E-05   -0.34230E-04 13200   0.183E-01    0.185E-02
DAV:   2    -0.416015247987E+02    0.36824E-05   -0.39907E-05 12976   0.940E-02    0.769E-03
DAV:   3    -0.416015242830E+02    0.51572E-06   -0.29783E-06 14884   0.216E-02    0.373E-03
DAV:   4    -0.416015241114E+02    0.17160E-06   -0.43792E-07 15368   0.104E-02    0.758E-04
DAV:   5    -0.416015241496E+02   -0.38189E-07   -0.23437E-07 10756   0.389E-03    0.421E-04
DAV:   6    -0.416015241422E+02    0.73692E-08   -0.70780E-09  5912   0.861E-04
  26 F= -.41601524E+02 E0= -.41600045E+02  d E =0.664497E-05
 trial-energy change:    0.000007  1 .order   -0.000000   -0.000001    0.000000
 step:   0.8501(harm=  0.8501)  dis= 0.00009  next Energy=   -41.601531 (dE=-0.499E-06)
 bond charge predicted
       N       E                     dE             d eps       ncg     rms          rms(c)
DAV:   1    -0.416015245449E+02   -0.39530E-06   -0.23713E-05 13196   0.481E-02    0.484E-03
DAV:   2    -0.416015243047E+02    0.24023E-06   -0.27641E-06 12904   0.247E-02    0.203E-03
DAV:   3    -0.416015242092E+02    0.95534E-07   -0.20565E-07 14624   0.568E-03    0.993E-04
DAV:   4    -0.416015241499E+02    0.59272E-07   -0.26256E-08  9112   0.276E-03    0.210E-04
DAV:   5    -0.416015241414E+02    0.85251E-08   -0.20295E-08  6340   0.120E-03
  27 F= -.41601524E+02 E0= -.41600044E+02  d E =0.664586E-05
 curvature:  -0.51 expect dE=-0.142E-06 dE for cont linesearch -0.332E-09
 trial: gam= 0.24108 g(F)=  0.127E-06 g(S)=  0.151E-06 ort = 0.303E-07 (trialstep = 0.109E+01)
 search vector abs. value=  0.375E-06
 bond charge predicted
       N       E                     dE             d eps       ncg     rms          rms(c)
DAV:   1    -0.416015248130E+02   -0.66309E-06   -0.80461E-05 10428   0.697E-02    0.680E-03
DAV:   2    -0.416015245458E+02    0.26715E-06   -0.68977E-06 11412   0.362E-02    0.314E-03
DAV:   3    -0.416015243694E+02    0.17638E-06   -0.52282E-07 13072   0.954E-03    0.153E-03
DAV:   4    -0.416015242787E+02    0.90718E-07   -0.10647E-07 14108   0.490E-03    0.338E-04
DAV:   5    -0.416015242712E+02    0.74920E-08   -0.41926E-08  9768   0.158E-03
  28 F= -.41601524E+02 E0= -.41600044E+02  d E =-.129884E-06
 trial-energy change:   -0.000000  1 .order   -0.000000   -0.000000    0.000000
 step:   1.0877(harm=  1.0877)  dis= 0.00006  next Energy=   -41.601524 (dE=-0.155E-06)
 bond charge predicted
       N       E                     dE             d eps       ncg     rms          rms(c)
DAV:   1    -0.416015242746E+02    0.41132E-08   -0.31244E-09  5600   0.537E-04    0.105E-04
DAV:   2    -0.416015242767E+02   -0.20800E-08   -0.87691E-10  5424   0.465E-04
  29 F= -.41601524E+02 E0= -.41600044E+02  d E =-.135343E-06
 curvature:  -0.71 expect dE=-0.851E-07 dE for cont linesearch -0.176E-08
 trial: gam= 0.36355 g(F)=  0.103E-06 g(S)=  0.165E-07 ort = 0.304E-07 (trialstep = 0.109E+01)
 search vector abs. value=  0.191E-06
 bond charge predicted
       N       E                     dE             d eps       ncg     rms          rms(c)
DAV:   1    -0.416015242644E+02    0.10225E-07   -0.47916E-05  9932   0.371E-02    0.984E-04
DAV:   2    -0.416015243668E+02   -0.10240E-06   -0.10462E-06 12380   0.718E-03    0.704E-04
DAV:   3    -0.416015243694E+02   -0.25830E-08   -0.36092E-08  9896   0.143E-03
  30 F= -.41601524E+02 E0= -.41600044E+02  d E =-.926784E-07
 trial-energy change:   -0.000000  1 .order   -0.000000   -0.000000   -0.000000
 step:   1.3294(harm=  1.3294)  dis= 0.00006  next Energy=   -41.601524 (dE=-0.866E-07)
 bond charge predicted
       N       E                     dE             d eps       ncg     rms          rms(c)
DAV:   1    -0.416015243722E+02   -0.54229E-08   -0.21806E-06 10216   0.807E-03    0.271E-04
DAV:   2    -0.416015243780E+02   -0.58317E-08   -0.38084E-08 11004   0.170E-03
  31 F= -.41601524E+02 E0= -.41600044E+02  d E =-.101350E-06
 curvature:  -0.97 expect dE=-0.652E-07 dE for cont linesearch -0.249E-09
 trial: gam= 0.63026 g(F)=  0.564E-07 g(S)=  0.106E-07 ort =-0.699E-08 (trialstep = 0.114E+01)
 search vector abs. value=  0.134E-06
 bond charge predicted
       N       E                     dE             d eps       ncg     rms          rms(c)
DAV:   1    -0.416015243977E+02   -0.25440E-07   -0.36047E-05 10100   0.360E-02    0.217E-03
DAV:   2    -0.416015244119E+02   -0.14285E-07   -0.11555E-06 11728   0.123E-02    0.117E-03
DAV:   3    -0.416015244259E+02   -0.13918E-07   -0.85603E-08 11848   0.356E-03    0.589E-04
DAV:   4    -0.416015244354E+02   -0.95679E-08   -0.13397E-08  6192   0.178E-03
  32 F= -.41601524E+02 E0= -.41600044E+02  d E =-.573796E-07
 trial-energy change:   -0.000000  1 .order   -0.000000   -0.000000    0.000000
 step:   0.9859(harm=  0.9859)  dis= 0.00004  next Energy=   -41.601524 (dE=-0.308E-07)
 bond charge predicted
       N       E                     dE             d eps       ncg     rms          rms(c)
DAV:   1    -0.416015244429E+02   -0.17081E-07   -0.67418E-07 10156   0.472E-03    0.286E-04
DAV:   2    -0.416015244425E+02    0.39063E-09   -0.19566E-08  6292   0.168E-03
  33 F= -.41601524E+02 E0= -.41600044E+02  d E =-.645023E-07
 curvature:  -1.06 expect dE=-0.622E-07 dE for cont linesearch -0.329E-08
 trial: gam= 0.00000 g(F)=  0.288E-07 g(S)=  0.301E-07 ort = 0.204E-07 (trialstep = 0.111E+01)
 search vector abs. value=  0.590E-07
 reached required accuracy - stopping structural energy minimisation
 writing wavefunctions
Mon Jan  3 23:38:30 CST 2022
