Mon Jan  3 23:37:39 CST 2022
 running on   48 total cores
 distrk:  each k-point on   48 cores,    1 groups
 distr:  one band on   24 cores,    2 groups
 using from now: INCAR     
 vasp.5.3.5 31Mar14 (build Jan 11 2016 19:50:55) complex                        
  
 POSCAR found type information on POSCAR  Zn Ga N  O 
 POSCAR found :  4 types and       8 ions
 scaLAPACK will be used

 ----------------------------------------------------------------------------- 
|                                                                             |
|           W    W    AA    RRRRR   N    N  II  N    N   GGGG   !!!           |
|           W    W   A  A   R    R  NN   N  II  NN   N  G    G  !!!           |
|           W    W  A    A  R    R  N N  N  II  N N  N  G       !!!           |
|           W WW W  AAAAAA  RRRRR   N  N N  II  N  N N  G  GGG   !            |
|           WW  WW  A    A  R   R   N   NN  II  N   NN  G    G                |
|           W    W  A    A  R    R  N    N  II  N    N   GGGG   !!!           |
|                                                                             |
|      For optimal performance we recommend to set                            |
|        NCORE= 4 - approx SQRT( number of cores)                             |
|      NCORE specifies how many cores store one orbital (NPAR=cpu/NCORE).     |
|      This setting can  greatly improve the performance of VASP for DFT.     |
|      The default, NPAR=number of cores might be grossly inefficient         |
|      on modern multi-core architectures or massively parallel machines.     |
|      Do your own testing !!!!                                               |
|      Unfortunately you need to use the default for GW and RPA calculations. |
|      (for HF NCORE is supported but not extensively tested yet)             |
|                                                                             |
 ----------------------------------------------------------------------------- 

 LDA part: xc-table for Pade appr. of Perdew
 POSCAR, INCAR and KPOINTS ok, starting setup
 WARNING: small aliasing (wrap around) errors must be expected
 FFT: planning ...
 WAVECAR not read
 entering main loop
       N       E                     dE             d eps       ncg     rms          rms(c)
DAV:   1     0.880190913946E+03    0.88019E+03   -0.42132E+04 10192   0.315E+03
DAV:   2     0.141260772189E+03   -0.73893E+03   -0.71175E+03  9976   0.754E+02
DAV:   3    -0.280804387726E+02   -0.16934E+03   -0.16485E+03 11460   0.258E+02
DAV:   4    -0.426748713711E+02   -0.14594E+02   -0.14409E+02 12200   0.768E+01
DAV:   5    -0.431070961080E+02   -0.43222E+00   -0.43060E+00 11592   0.131E+01    0.150E+01
DAV:   6    -0.382733925105E+02    0.48337E+01   -0.18241E+01 18300   0.567E+01    0.796E+00
DAV:   7    -0.384703242328E+02   -0.19693E+00   -0.52574E+00 10384   0.147E+01    0.524E+00
DAV:   8    -0.384621290549E+02    0.81952E-02   -0.17475E+00 15456   0.858E+00    0.241E+00
DAV:   9    -0.383607513611E+02    0.10138E+00   -0.42052E-01 14668   0.644E+00    0.556E-01
DAV:  10    -0.383678549855E+02   -0.71036E-02   -0.13234E-01 11452   0.203E+00    0.310E-01
DAV:  11    -0.383671237997E+02    0.73119E-03   -0.10990E-02 12236   0.101E+00    0.954E-02
DAV:  12    -0.383673161293E+02   -0.19233E-03   -0.21182E-03 11332   0.447E-01    0.525E-02
DAV:  13    -0.383673683870E+02   -0.52258E-04   -0.26189E-04 12784   0.211E-01    0.298E-02
DAV:  14    -0.383673683257E+02    0.61321E-07   -0.74329E-05 12960   0.899E-02    0.102E-02
DAV:  15    -0.383673741486E+02   -0.58229E-05   -0.28986E-05 11292   0.422E-02    0.786E-03
DAV:  16    -0.383673741347E+02    0.13903E-07   -0.49007E-06 13504   0.214E-02    0.291E-03
DAV:  17    -0.383673743085E+02   -0.17385E-06   -0.15030E-06 11484   0.136E-02    0.175E-03
DAV:  18    -0.383673742930E+02    0.15536E-07   -0.39831E-07 15064   0.696E-03    0.650E-04
DAV:  19    -0.383673742824E+02    0.10585E-07   -0.11020E-07 11836   0.308E-03    0.454E-04
DAV:  20    -0.383673742558E+02    0.26610E-07   -0.42381E-08 11124   0.196E-03    0.168E-04
DAV:  21    -0.383673742551E+02    0.71304E-09   -0.59968E-09  5676   0.724E-04
   1 F= -.38367374E+02 E0= -.38351603E+02  d E =-.383674E+02
 curvature:   0.00 expect dE= 0.000E+00 dE for cont linesearch  0.000E+00
 trial: gam= 0.00000 g(F)=  0.968E-02 g(S)=  0.649E-02 ort = 0.000E+00 (trialstep = 0.100E+01)
 search vector abs. value=  0.162E-01
 bond charge predicted
       N       E                     dE             d eps       ncg     rms          rms(c)
DAV:   1    -0.383708898327E+02   -0.35156E-02   -0.30079E+00 10172   0.111E+01    0.126E+00
DAV:   2    -0.383583044767E+02    0.12585E-01   -0.22227E-01 11112   0.477E+00    0.710E-01
DAV:   3    -0.383511898813E+02    0.71146E-02   -0.17984E-02 12620   0.151E+00    0.356E-01
DAV:   4    -0.383491789908E+02    0.20109E-02   -0.70774E-03 11992   0.840E-01    0.105E-01
DAV:   5    -0.383491518730E+02    0.27118E-04   -0.17921E-03 11524   0.411E-01    0.412E-02
DAV:   6    -0.383491602761E+02   -0.84031E-05   -0.26752E-04 11528   0.124E-01    0.200E-02
DAV:   7    -0.383491596372E+02    0.63883E-06   -0.38208E-05 12860   0.808E-02    0.105E-02
DAV:   8    -0.383491601562E+02   -0.51900E-06   -0.87571E-06 11180   0.417E-02    0.491E-03
DAV:   9    -0.383491603408E+02   -0.18454E-06   -0.29349E-06 13060   0.157E-02    0.184E-03
DAV:  10    -0.383491604407E+02   -0.99945E-07   -0.71682E-07 11704   0.831E-03    0.101E-03
DAV:  11    -0.383491604742E+02   -0.33441E-07   -0.12578E-07 12324   0.314E-03    0.561E-04
DAV:  12    -0.383491604888E+02   -0.14604E-07   -0.49008E-08 11836   0.178E-03    0.236E-04
DAV:  13    -0.383491604959E+02   -0.70977E-08   -0.85694E-09  5616   0.996E-04
   2 F= -.38349160E+02 E0= -.38334912E+02  d E =0.182138E-01
 trial-energy change:    0.018214  1 .order    0.019307   -0.016177    0.054791
 step:   0.2450(harm=  0.2279)  dis= 0.00286  next Energy=   -38.369372 (dE=-0.200E-02)
 bond charge predicted
       N       E                     dE             d eps       ncg     rms          rms(c)
DAV:   1    -0.383823581358E+02   -0.33198E-01   -0.17147E+00 10124   0.821E+00    0.959E-01
DAV:   2    -0.383745030212E+02    0.78551E-02   -0.12241E-01 11516   0.352E+00    0.540E-01
DAV:   3    -0.383705308246E+02    0.39722E-02   -0.94017E-03 12756   0.112E+00    0.282E-01
DAV:   4    -0.383693596819E+02    0.11711E-02   -0.39193E-03 12104   0.638E-01    0.816E-02
DAV:   5    -0.383693546575E+02    0.50244E-05   -0.10014E-03 11512   0.308E-01    0.298E-02
DAV:   6    -0.383693602386E+02   -0.55811E-05   -0.13834E-04 10784   0.925E-02    0.152E-02
DAV:   7    -0.383693599884E+02    0.25017E-06   -0.19960E-05 13272   0.641E-02    0.786E-03
DAV:   8    -0.383693601383E+02   -0.14990E-06   -0.47857E-06 11264   0.333E-02    0.354E-03
DAV:   9    -0.383693602000E+02   -0.61691E-07   -0.18777E-06 13756   0.102E-02    0.143E-03
DAV:  10    -0.383693601826E+02    0.17404E-07   -0.34174E-07 11884   0.539E-03    0.789E-04
DAV:  11    -0.383693601627E+02    0.19900E-07   -0.66914E-08 11912   0.203E-03    0.401E-04
DAV:  12    -0.383693601528E+02    0.98689E-08   -0.24305E-08  8328   0.116E-03
   3 F= -.38369360E+02 E0= -.38353927E+02  d E =-.198590E-02
 curvature:  -0.11 expect dE=-0.357E-02 dE for cont linesearch -0.297E-07
 trial: gam= 1.94180 g(F)=  0.209E-01 g(S)=  0.105E-01 ort =-0.649E-04 (trialstep = 0.149E+00)
 search vector abs. value=  0.921E-01
 bond charge predicted
       N       E                     dE             d eps       ncg     rms          rms(c)
DAV:   1    -0.383801813679E+02   -0.10821E-01   -0.29581E-01 13272   0.451E+00    0.588E-01
DAV:   2    -0.383751504544E+02    0.50309E-02   -0.27599E-02 12024   0.229E+00    0.290E-01
DAV:   3    -0.383738846314E+02    0.12658E-02   -0.24820E-03 12796   0.568E-01    0.138E-01
DAV:   4    -0.383734867286E+02    0.39790E-03   -0.80905E-04 13464   0.316E-01    0.286E-02
DAV:   5    -0.383734871501E+02   -0.42148E-06   -0.24137E-04 10668   0.157E-01    0.140E-02
DAV:   6    -0.383734882854E+02   -0.11353E-05   -0.32345E-05 14248   0.429E-02    0.808E-03
DAV:   7    -0.383734879791E+02    0.30636E-06   -0.51444E-06 13836   0.320E-02    0.477E-03
DAV:   8    -0.383734880635E+02   -0.84467E-07   -0.13449E-06 11316   0.136E-02    0.236E-03
DAV:   9    -0.383734880701E+02   -0.65593E-08   -0.58369E-07 13280   0.516E-03    0.593E-04
DAV:  10    -0.383734880873E+02   -0.17267E-07   -0.10472E-07 11540   0.313E-03    0.370E-04
DAV:  11    -0.383734881040E+02   -0.16642E-07   -0.12813E-08  5724   0.989E-04    0.175E-04
DAV:  12    -0.383734881137E+02   -0.97061E-08   -0.35950E-09  5500   0.538E-04
   4 F= -.38373488E+02 E0= -.38358558E+02  d E =-.412796E-02
 ZBRENT: can't locate minimum, use default step
 trial-energy change:   -0.004128  1 .order   -0.004126   -0.004656   -0.003596
 step:   0.5966(harm=  0.6547)  dis= 0.01126  next Energy=   -38.379580 (dE=-0.102E-01)
 bond charge predicted
       N       E                     dE             d eps       ncg     rms          rms(c)
DAV:   1    -0.384379329171E+02   -0.64445E-01   -0.26597E+00 12928   0.136E+01    0.175E+00
DAV:   2    -0.383942447888E+02    0.43688E-01   -0.25622E-01 12024   0.695E+00    0.866E-01
DAV:   3    -0.383831759788E+02    0.11069E-01   -0.23319E-02 13072   0.170E+00    0.414E-01
DAV:   4    -0.383795862238E+02    0.35898E-02   -0.71151E-03 13480   0.959E-01    0.868E-02
DAV:   5    -0.383795875389E+02   -0.13151E-05   -0.21471E-03 10700   0.464E-01    0.417E-02
DAV:   6    -0.383795979643E+02   -0.10425E-04   -0.30129E-04 14256   0.130E-01    0.247E-02
DAV:   7    -0.383795946851E+02    0.32792E-05   -0.46448E-05 13956   0.961E-02    0.140E-02
DAV:   8    -0.383795953052E+02   -0.62006E-06   -0.12300E-05 11440   0.389E-02    0.701E-03
DAV:   9    -0.383795951491E+02    0.15608E-06   -0.48470E-06 13524   0.152E-02    0.173E-03
DAV:  10    -0.383795952458E+02   -0.96731E-07   -0.90187E-07 11324   0.804E-03    0.997E-04
DAV:  11    -0.383795953002E+02   -0.54347E-07   -0.12049E-07 11464   0.281E-03    0.519E-04
DAV:  12    -0.383795953263E+02   -0.26118E-07   -0.26795E-08  8284   0.126E-03    0.250E-04
DAV:  13    -0.383795953295E+02   -0.32392E-08   -0.64296E-09  5624   0.766E-04
   5 F= -.38379595E+02 E0= -.38366378E+02  d E =-.102352E-01
 curvature:  -0.95 expect dE=-0.914E-02 dE for cont linesearch -0.113E-03
 ZBRENT: extrapolating
 opt :   0.6677  next Energy=   -38.379713 (dE=-0.104E-01)
 bond charge predicted
       N       E                     dE             d eps       ncg     rms          rms(c)
DAV:   1    -0.383811943257E+02   -0.15990E-02   -0.66589E-02 12932   0.212E+00    0.278E-01
DAV:   2    -0.383800840520E+02    0.11103E-02   -0.62519E-03 11932   0.108E+00    0.137E-01
DAV:   3    -0.383798027836E+02    0.28127E-03   -0.56191E-04 12728   0.266E-01    0.653E-02
DAV:   4    -0.383797128866E+02    0.89897E-04   -0.17846E-04 13548   0.150E-01    0.136E-02
DAV:   5    -0.383797127876E+02    0.98944E-07   -0.54385E-05 10696   0.728E-02    0.661E-03
DAV:   6    -0.383797130326E+02   -0.24494E-06   -0.72787E-06 14184   0.192E-02    0.377E-03
DAV:   7    -0.383797129717E+02    0.60871E-07   -0.11927E-06 13540   0.137E-02    0.226E-03
DAV:   8    -0.383797130078E+02   -0.36076E-07   -0.30568E-07 11124   0.624E-03    0.117E-03
DAV:   9    -0.383797130189E+02   -0.11115E-07   -0.13257E-07 12556   0.265E-03    0.282E-04
DAV:  10    -0.383797130229E+02   -0.40509E-08   -0.23180E-08  7844   0.173E-03
   6 F= -.38379713E+02 E0= -.38366789E+02  d E =-.103529E-01
 curvature:  -0.99 expect dE=-0.112E-01 dE for cont linesearch -0.564E-07
 trial: gam= 0.34953 g(F)=  0.817E-02 g(S)=  0.315E-02 ort = 0.724E-04 (trialstep = 0.253E+00)
 search vector abs. value=  0.226E-01
 bond charge predicted
       N       E                     dE             d eps       ncg     rms          rms(c)
DAV:   1    -0.383841148757E+02   -0.44019E-02   -0.23031E-01 10144   0.269E+00    0.289E-01
DAV:   2    -0.383831253626E+02    0.98951E-03   -0.55725E-03 12284   0.755E-01    0.172E-01
DAV:   3    -0.383824286066E+02    0.69676E-03   -0.10758E-03 13212   0.327E-01    0.290E-02
DAV:   4    -0.383824451661E+02   -0.16559E-04   -0.35178E-04 10612   0.156E-01    0.132E-02
DAV:   5    -0.383824455632E+02   -0.39712E-06   -0.27181E-05 13320   0.573E-02    0.807E-03
DAV:   6    -0.383824454404E+02    0.12284E-06   -0.55911E-06 13644   0.356E-02    0.463E-03
DAV:   7    -0.383824453459E+02    0.94439E-07   -0.12122E-06 10920   0.136E-02    0.173E-03
DAV:   8    -0.383824453571E+02   -0.11191E-07   -0.62989E-07 13744   0.582E-03    0.950E-04
DAV:   9    -0.383824453538E+02    0.32828E-08   -0.94077E-08 11880   0.274E-03
   7 F= -.38382445E+02 E0= -.38369920E+02  d E =-.273233E-02
 ZBRENT: can't locate minimum, use default step
 trial-energy change:   -0.002732  1 .order   -0.002733   -0.002868   -0.002597
 step:   1.0114(harm=  2.6692)  dis= 0.01264  next Energy=   -38.394853 (dE=-0.151E-01)
 bond charge predicted
       N       E                     dE             d eps       ncg     rms          rms(c)
DAV:   1    -0.384038480451E+02   -0.21403E-01   -0.20712E+00 10148   0.809E+00    0.865E-01
DAV:   2    -0.383950706307E+02    0.87774E-02   -0.50567E-02 12180   0.227E+00    0.514E-01
DAV:   3    -0.383888009424E+02    0.62697E-02   -0.94573E-03 12424   0.100E+00    0.849E-02
DAV:   4    -0.383889810419E+02   -0.18010E-03   -0.33835E-03 10616   0.486E-01    0.394E-02
DAV:   5    -0.383889865878E+02   -0.55458E-05   -0.26180E-04 12704   0.174E-01    0.241E-02
DAV:   6    -0.383889859591E+02    0.62867E-06   -0.48110E-05 13632   0.102E-01    0.138E-02
DAV:   7    -0.383889856408E+02    0.31831E-06   -0.10152E-05 10700   0.399E-02    0.509E-03
DAV:   8    -0.383889858155E+02   -0.17473E-06   -0.49133E-06 13604   0.162E-02    0.265E-03
DAV:   9    -0.383889857733E+02    0.42227E-07   -0.77667E-07 11252   0.920E-03    0.171E-03
DAV:  10    -0.383889857716E+02    0.16666E-08   -0.40743E-07 14164   0.442E-03    0.719E-04
DAV:  11    -0.383889857669E+02    0.47107E-08   -0.69263E-08 11464   0.291E-03
   8 F= -.38388986E+02 E0= -.38377651E+02  d E =-.927274E-02
 curvature:  -1.41 expect dE=-0.853E-02 dE for cont linesearch -0.300E-02
 ZBRENT: increasing intervall
 opt :   2.5285  next Energy=   -38.394477 (dE=-0.148E-01)
 bond charge predicted
       N       E                     dE             d eps       ncg     rms          rms(c)
DAV:   1    -0.384521925419E+02   -0.63207E-01   -0.82774E+00 10144   0.162E+01    0.172E+00
DAV:   2    -0.384182848887E+02    0.33908E-01   -0.20786E-01 12128   0.450E+00    0.103E+00
DAV:   3    -0.383934811278E+02    0.24804E-01   -0.37597E-02 13128   0.209E+00    0.173E-01
DAV:   4    -0.383941459768E+02   -0.66485E-03   -0.13223E-02 10520   0.100E+00    0.799E-02
DAV:   5    -0.383941866321E+02   -0.40655E-04   -0.12656E-03 12632   0.344E-01    0.495E-02
DAV:   6    -0.383941820812E+02    0.45508E-05   -0.18819E-04 13000   0.180E-01    0.290E-02
DAV:   7    -0.383941817217E+02    0.35952E-06   -0.43535E-05 10628   0.718E-02    0.111E-02
DAV:   8    -0.383941819853E+02   -0.26355E-06   -0.17793E-05 13288   0.367E-02    0.484E-03
DAV:   9    -0.383941819363E+02    0.48984E-07   -0.35501E-06 10644   0.223E-02    0.337E-03
DAV:  10    -0.383941819192E+02    0.17133E-07   -0.15076E-06 13520   0.978E-03    0.126E-03
DAV:  11    -0.383941819347E+02   -0.15588E-07   -0.28490E-07 11768   0.537E-03    0.578E-04
DAV:  12    -0.383941819357E+02   -0.92905E-09   -0.47797E-08 11584   0.180E-03
   9 F= -.38394182E+02 E0= -.38385073E+02  d E =-.144689E-01
 curvature:  -2.58 expect dE=-0.243E-01 dE for cont linesearch -0.691E-05
 trial: gam= 0.76811 g(F)=  0.688E-02 g(S)=  0.255E-02 ort =-0.246E-03 (trialstep = 0.708E+00)
 search vector abs. value=  0.224E-01
 bond charge predicted
       N       E                     dE             d eps       ncg     rms          rms(c)
DAV:   1    -0.383911911059E+02    0.29908E-02   -0.22659E+00 10036   0.931E+00    0.731E-01
DAV:   2    -0.383914953861E+02   -0.30428E-03   -0.11641E-01 11500   0.378E+00    0.403E-01
DAV:   3    -0.383902465420E+02    0.12488E-02   -0.96574E-03 12492   0.932E-01    0.220E-01
DAV:   4    -0.383894270280E+02    0.81951E-03   -0.15717E-03 13196   0.508E-01    0.585E-02
DAV:   5    -0.383894274799E+02   -0.45185E-06   -0.50905E-04 10936   0.226E-01    0.192E-02
DAV:   6    -0.383894289775E+02   -0.14977E-05   -0.93886E-05 12244   0.731E-02    0.123E-02
DAV:   7    -0.383894277771E+02    0.12004E-05   -0.13991E-05 13952   0.419E-02    0.594E-03
DAV:   8    -0.383894278578E+02   -0.80639E-07   -0.31851E-06 10748   0.162E-02    0.324E-03
DAV:   9    -0.383894277261E+02    0.13166E-06   -0.93460E-07 14484   0.900E-03    0.845E-04
DAV:  10    -0.383894277486E+02   -0.22436E-07   -0.26520E-07 11196   0.463E-03    0.674E-04
DAV:  11    -0.383894277471E+02    0.14024E-08   -0.30422E-08  8340   0.196E-03
  10 F= -.38389428E+02 E0= -.38381204E+02  d E =0.475419E-02
 trial-energy change:    0.004754  1 .order    0.004943   -0.006539    0.016426
 step:   0.2089(harm=  0.2016)  dis= 0.00245  next Energy=   -38.395151 (dE=-0.969E-03)
 bond charge predicted
       N       E                     dE             d eps       ncg     rms          rms(c)
DAV:   1    -0.383961115318E+02   -0.66838E-02   -0.11367E+00 10044   0.670E+00    0.517E-01
DAV:   2    -0.383961568404E+02   -0.45309E-04   -0.57088E-02 11432   0.276E+00    0.285E-01
DAV:   3    -0.383955515333E+02    0.60531E-03   -0.47665E-03 11848   0.649E-01    0.156E-01
DAV:   4    -0.383951504327E+02    0.40110E-03   -0.78064E-04 13480   0.359E-01    0.439E-02
DAV:   5    -0.383951452929E+02    0.51398E-05   -0.24067E-04 11124   0.151E-01    0.128E-02
DAV:   6    -0.383951468922E+02   -0.15993E-05   -0.43938E-05 11932   0.515E-02    0.873E-03
DAV:   7    -0.383951464607E+02    0.43149E-06   -0.62712E-06 13816   0.298E-02    0.419E-03
DAV:   8    -0.383951467347E+02   -0.27397E-06   -0.18546E-06 11932   0.121E-02    0.237E-03
DAV:   9    -0.383951466807E+02    0.53979E-07   -0.47863E-07 14008   0.636E-03    0.646E-04
DAV:  10    -0.383951467007E+02   -0.19957E-07   -0.16167E-07 11224   0.306E-03    0.483E-04
DAV:  11    -0.383951467005E+02    0.17326E-09   -0.12990E-08  6068   0.152E-03
  11 F= -.38395147E+02 E0= -.38386303E+02  d E =-.964765E-03
 curvature:  -0.24 expect dE=-0.346E-02 dE for cont linesearch -0.355E-10
 trial: gam= 1.47991 g(F)=  0.107E-01 g(S)=  0.348E-02 ort =-0.180E-05 (trialstep = 0.215E+00)
 search vector abs. value=  0.632E-01
 bond charge predicted
       N       E                     dE             d eps       ncg     rms          rms(c)
DAV:   1    -0.383986405403E+02   -0.34938E-02   -0.61580E-01 10140   0.448E+00    0.337E-01
DAV:   2    -0.383981281468E+02    0.51239E-03   -0.20252E-02 10972   0.157E+00    0.187E-01
DAV:   3    -0.383978616457E+02    0.26650E-03   -0.19378E-03 11640   0.489E-01    0.946E-02
DAV:   4    -0.383977137656E+02    0.14788E-03   -0.46208E-04 14436   0.262E-01    0.270E-02
DAV:   5    -0.383977132192E+02    0.54635E-06   -0.11548E-04 11460   0.951E-02    0.101E-02
DAV:   6    -0.383977133807E+02   -0.16147E-06   -0.19484E-05 13944   0.322E-02    0.618E-03
DAV:   7    -0.383977132196E+02    0.16104E-06   -0.44112E-06 13376   0.197E-02    0.284E-03
DAV:   8    -0.383977132419E+02   -0.22249E-07   -0.73316E-07 10404   0.808E-03    0.145E-03
DAV:   9    -0.383977132171E+02    0.24811E-07   -0.26172E-07 14012   0.497E-03    0.488E-04
DAV:  10    -0.383977132156E+02    0.14566E-08   -0.50863E-08 10416   0.211E-03
  12 F= -.38397713E+02 E0= -.38389036E+02  d E =-.256652E-02
 trial-energy change:   -0.002567  1 .order   -0.002561   -0.003053   -0.002069
 step:   0.6284(harm=  0.6690)  dis= 0.01403  next Energy=   -38.399735 (dE=-0.459E-02)
 bond charge predicted
       N       E                     dE             d eps       ncg     rms          rms(c)
DAV:   1    -0.384032951545E+02   -0.55819E-02   -0.22596E+00 10140   0.856E+00    0.646E-01
DAV:   2    -0.384014027287E+02    0.18924E-02   -0.74491E-02 10996   0.300E+00    0.359E-01
DAV:   3    -0.384004155629E+02    0.98717E-03   -0.71754E-03 11668   0.943E-01    0.183E-01
DAV:   4    -0.383998667743E+02    0.54879E-03   -0.17097E-03 14768   0.512E-01    0.518E-02
DAV:   5    -0.383998637378E+02    0.30366E-05   -0.43052E-04 11460   0.190E-01    0.194E-02
DAV:   6    -0.383998642707E+02   -0.53297E-06   -0.73542E-05 14204   0.642E-02    0.119E-02
DAV:   7    -0.383998636316E+02    0.63912E-06   -0.15980E-05 13424   0.378E-02    0.549E-03
DAV:   8    -0.383998637272E+02   -0.95572E-07   -0.27507E-06 10416   0.157E-02    0.286E-03
DAV:   9    -0.383998636460E+02    0.81205E-07   -0.96323E-07 14252   0.972E-03    0.942E-04
DAV:  10    -0.383998636525E+02   -0.64892E-08   -0.19937E-07 10564   0.412E-03    0.663E-04
DAV:  11    -0.383998636433E+02    0.91391E-08   -0.26828E-08  8132   0.169E-03
  13 F= -.38399864E+02 E0= -.38391485E+02  d E =-.471694E-02
 curvature:  -1.48 expect dE=-0.289E-02 dE for cont linesearch -0.143E-04
 ZBRENT: extrapolating
 opt :   0.6650  next Energy=   -38.399878 (dE=-0.473E-02)
 bond charge predicted
       N       E                     dE             d eps       ncg     rms          rms(c)
DAV:   1    -0.383999041612E+02   -0.40509E-04   -0.17821E-02 10156   0.768E-01    0.575E-02
DAV:   2    -0.383998892903E+02    0.14871E-04   -0.59402E-04 10988   0.275E-01    0.320E-02
DAV:   3    -0.383998821198E+02    0.71705E-05   -0.57088E-05 11692   0.839E-02    0.162E-02
DAV:   4    -0.383998780597E+02    0.40601E-05   -0.13461E-05 14808   0.449E-02    0.460E-03
DAV:   5    -0.383998781549E+02   -0.95164E-07   -0.33323E-06 10984   0.162E-02    0.172E-03
DAV:   6    -0.383998781772E+02   -0.22291E-07   -0.58373E-07 13848   0.566E-03    0.106E-03
DAV:   7    -0.383998781742E+02    0.29709E-08   -0.12451E-07 12916   0.350E-03    0.480E-04
DAV:   8    -0.383998781772E+02   -0.30077E-08   -0.22512E-08  8656   0.144E-03
  14 F= -.38399878E+02 E0= -.38391524E+02  d E =-.473148E-02
 curvature:  -1.48 expect dE=-0.334E-02 dE for cont linesearch -0.856E-09
 trial: gam= 0.23474 g(F)=  0.179E-02 g(S)=  0.465E-03 ort = 0.605E-05 (trialstep = 0.305E+00)
 search vector abs. value=  0.575E-02
 bond charge predicted
       N       E                     dE             d eps       ncg     rms          rms(c)
DAV:   1    -0.384005919829E+02   -0.71381E-03   -0.10428E-01 10196   0.173E+00    0.117E-01
DAV:   2    -0.384005485203E+02    0.43463E-04   -0.19926E-03 12588   0.436E-01    0.716E-02
DAV:   3    -0.384004484325E+02    0.10009E-03   -0.20389E-04 13628   0.204E-01    0.250E-02
DAV:   4    -0.384004420606E+02    0.63719E-05   -0.59137E-05 11120   0.124E-01    0.660E-03
DAV:   5    -0.384004431900E+02   -0.11294E-05   -0.17242E-05 11632   0.312E-02    0.432E-03
DAV:   6    -0.384004431077E+02    0.82270E-07   -0.89551E-07 12888   0.128E-02    0.240E-03
DAV:   7    -0.384004430887E+02    0.18996E-07   -0.40326E-07 11184   0.540E-03    0.962E-04
DAV:   8    -0.384004430953E+02   -0.65734E-08   -0.10057E-07 13296   0.345E-03    0.370E-04
DAV:   9    -0.384004430977E+02   -0.24188E-08   -0.16834E-08  6240   0.140E-03
  15 F= -.38400443E+02 E0= -.38392135E+02  d E =-.564921E-03
 trial-energy change:   -0.000565  1 .order   -0.000558   -0.000690   -0.000425
 step:   0.6675(harm=  0.7951)  dis= 0.00600  next Energy=   -38.400707 (dE=-0.829E-03)
 bond charge predicted
       N       E                     dE             d eps       ncg     rms          rms(c)
DAV:   1    -0.384009698841E+02   -0.52679E-03   -0.14661E-01 10192   0.205E+00    0.139E-01
DAV:   2    -0.384009084373E+02    0.61447E-04   -0.27963E-03 12588   0.518E-01    0.848E-02
DAV:   3    -0.384007675534E+02    0.14088E-03   -0.28754E-04 13704   0.243E-01    0.296E-02
DAV:   4    -0.384007586237E+02    0.89297E-05   -0.83163E-05 11100   0.147E-01    0.783E-03
DAV:   5    -0.384007602108E+02   -0.15871E-05   -0.24255E-05 11644   0.369E-02    0.511E-03
DAV:   6    -0.384007600941E+02    0.11670E-06   -0.12532E-06 12876   0.150E-02    0.284E-03
DAV:   7    -0.384007600718E+02    0.22343E-07   -0.56224E-07 11188   0.636E-03    0.114E-03
DAV:   8    -0.384007600803E+02   -0.85515E-08   -0.14124E-07 13612   0.408E-03    0.440E-04
DAV:   9    -0.384007600832E+02   -0.28854E-08   -0.24478E-08  7856   0.163E-03
  16 F= -.38400760E+02 E0= -.38392502E+02  d E =-.881906E-03
 curvature:  -0.94 expect dE=-0.990E-02 dE for cont linesearch -0.202E-04
 trial: gam= 4.49913 g(F)=  0.857E-02 g(S)=  0.195E-02 ort = 0.351E-03 (trialstep = 0.167E-01)
 search vector abs. value=  0.130E+00
 bond charge predicted
       N       E                     dE             d eps       ncg     rms          rms(c)
DAV:   1    -0.384009744914E+02   -0.21441E-03   -0.67689E-03 10316   0.451E-01    0.360E-02
DAV:   2    -0.384009661241E+02    0.83673E-05   -0.14767E-04 12708   0.143E-01    0.209E-02
DAV:   3    -0.384009579080E+02    0.82161E-05   -0.17710E-05 12632   0.543E-02    0.833E-03
DAV:   4    -0.384009568232E+02    0.10848E-05   -0.48481E-06 11316   0.316E-02    0.178E-03
DAV:   5    -0.384009569263E+02   -0.10304E-06   -0.13079E-06 10844   0.114E-02    0.118E-03
DAV:   6    -0.384009569331E+02   -0.68731E-08   -0.11977E-07 11564   0.565E-03    0.648E-04
DAV:   7    -0.384009569505E+02   -0.17391E-07   -0.36353E-08  8696   0.221E-03    0.206E-04
DAV:   8    -0.384009569548E+02   -0.43165E-08   -0.90488E-09  5332   0.112E-03
  17 F= -.38400957E+02 E0= -.38392695E+02  d E =-.196872E-03
 ZBRENT: can't locate minimum, use default step
 trial-energy change:   -0.000197  1 .order   -0.000197   -0.000202   -0.000191
 step:   0.0668(harm=  0.3182)  dis= 0.00293  next Energy=   -38.402684 (dE=-0.192E-02)
 bond charge predicted
       N       E                     dE             d eps       ncg     rms          rms(c)
DAV:   1    -0.384016415667E+02   -0.68462E-03   -0.60947E-02 10288   0.136E+00    0.108E-01
DAV:   2    -0.384015655412E+02    0.76025E-04   -0.13276E-03 12692   0.431E-01    0.627E-02
DAV:   3    -0.384014930038E+02    0.72537E-04   -0.16014E-04 12636   0.164E-01    0.250E-02
DAV:   4    -0.384014832758E+02    0.97280E-05   -0.43833E-05 11248   0.954E-02    0.536E-03
DAV:   5    -0.384014840955E+02   -0.81967E-06   -0.11892E-05 10824   0.343E-02    0.355E-03
DAV:   6    -0.384014840879E+02    0.75529E-08   -0.10811E-06 12032   0.170E-02    0.195E-03
DAV:   7    -0.384014841446E+02   -0.56663E-07   -0.35041E-07 12408   0.661E-03    0.644E-04
DAV:   8    -0.384014841569E+02   -0.12267E-07   -0.87780E-08 12520   0.308E-03    0.349E-04
DAV:   9    -0.384014841607E+02   -0.38576E-08   -0.13714E-08  5996   0.142E-03
  18 F= -.38401484E+02 E0= -.38393210E+02  d E =-.724078E-03
 curvature:  -0.52 expect dE=-0.269E-02 dE for cont linesearch -0.366E-03
 ZBRENT: increasing intervall
 opt :   0.1670  next Energy=   -38.402252 (dE=-0.149E-02)
 bond charge predicted
       N       E                     dE             d eps       ncg     rms          rms(c)
DAV:   1    -0.384028818453E+02   -0.13977E-02   -0.24395E-01 10292   0.272E+00    0.216E-01
DAV:   2    -0.384025772932E+02    0.30455E-03   -0.52969E-03 12652   0.863E-01    0.125E-01
DAV:   3    -0.384022889805E+02    0.28831E-03   -0.64184E-04 12672   0.329E-01    0.503E-02
DAV:   4    -0.384022497237E+02    0.39257E-04   -0.17592E-04 11096   0.191E-01    0.107E-02
DAV:   5    -0.384022529266E+02   -0.32029E-05   -0.48199E-05 10828   0.698E-02    0.708E-03
DAV:   6    -0.384022528323E+02    0.94331E-07   -0.43791E-06 12044   0.343E-02    0.391E-03
DAV:   7    -0.384022529545E+02   -0.12230E-06   -0.14208E-06 12452   0.133E-02    0.129E-03
DAV:   8    -0.384022529868E+02   -0.32252E-07   -0.35618E-07 13168   0.621E-03    0.703E-04
DAV:   9    -0.384022529955E+02   -0.87243E-08   -0.59820E-08 10348   0.279E-03
  19 F= -.38402253E+02 E0= -.38393952E+02  d E =-.149291E-02
 curvature:  -1.09 expect dE=-0.163E-02 dE for cont linesearch -0.282E-03
 ZBRENT: increasing intervall
 opt :   0.3674  next Energy=   -38.402659 (dE=-0.190E-02)
 bond charge predicted
       N       E                     dE             d eps       ncg     rms          rms(c)
DAV:   1    -0.384051689160E+02   -0.29159E-02   -0.97727E-01 10292   0.545E+00    0.431E-01
DAV:   2    -0.384039508175E+02    0.12181E-02   -0.21084E-02 12520   0.174E+00    0.251E-01
DAV:   3    -0.384028081699E+02    0.11426E-02   -0.26000E-03 12640   0.663E-01    0.101E-01
DAV:   4    -0.384026481006E+02    0.16007E-03   -0.71490E-04 11084   0.382E-01    0.215E-02
DAV:   5    -0.384026608881E+02   -0.12788E-04   -0.19588E-04 10772   0.143E-01    0.141E-02
DAV:   6    -0.384026604251E+02    0.46300E-06   -0.18004E-05 12096   0.696E-02    0.782E-03
DAV:   7    -0.384026607084E+02   -0.28332E-06   -0.57783E-06 12212   0.270E-02    0.259E-03
DAV:   8    -0.384026608041E+02   -0.95648E-07   -0.14470E-06 13232   0.125E-02    0.140E-03
DAV:   9    -0.384026608264E+02   -0.22271E-07   -0.24232E-07 11580   0.553E-03    0.835E-04
DAV:  10    -0.384026608558E+02   -0.29464E-07   -0.70951E-08 12560   0.219E-03    0.313E-04
DAV:  11    -0.384026608624E+02   -0.65465E-08   -0.77222E-09  5628   0.115E-03
  20 F= -.38402661E+02 E0= -.38394296E+02  d E =-.190078E-02
 curvature:  -1.57 expect dE=-0.146E-01 dE for cont linesearch -0.298E-04
 ZBRENT: bracketing found
 ZBRENT: interpolating
 opt :   0.3246  next Energy=   -38.402694 (dE=-0.193E-02)
 bond charge predicted
       N       E                     dE             d eps       ncg     rms          rms(c)
DAV:   1    -0.384028070412E+02   -0.14619E-03   -0.44279E-02 10292   0.115E+00    0.918E-02
DAV:   2    -0.384027524301E+02    0.54611E-04   -0.96475E-04 12724   0.366E-01    0.533E-02
DAV:   3    -0.384027008008E+02    0.51629E-04   -0.11578E-04 12724   0.140E-01    0.212E-02
DAV:   4    -0.384026939405E+02    0.68602E-05   -0.31078E-05 11296   0.817E-02    0.454E-03
DAV:   5    -0.384026944446E+02   -0.50406E-06   -0.85299E-06 10808   0.283E-02    0.301E-03
DAV:   6    -0.384026943834E+02    0.61180E-07   -0.74426E-07 11996   0.142E-02    0.165E-03
DAV:   7    -0.384026943434E+02    0.40053E-07   -0.24802E-07 12316   0.547E-03    0.554E-04
DAV:   8    -0.384026943377E+02    0.57030E-08   -0.60414E-08 11272   0.264E-03
  21 F= -.38402694E+02 E0= -.38394344E+02  d E =-.193425E-02
 curvature:  -1.77 expect dE=-0.106E-01 dE for cont linesearch -0.679E-09
 trial: gam= 1.05171 g(F)=  0.574E-02 g(S)=  0.226E-03 ort =-0.706E-05 (trialstep = 0.680E-01)
 search vector abs. value=  0.150E+00
 bond charge predicted
       N       E                     dE             d eps       ncg     rms          rms(c)
DAV:   1    -0.384032923136E+02   -0.59797E-03   -0.13297E-01 10276   0.197E+00    0.144E-01
DAV:   2    -0.384031729034E+02    0.11941E-03   -0.25126E-03 12608   0.555E-01    0.836E-02
DAV:   3    -0.384030479492E+02    0.12495E-03   -0.27573E-04 12880   0.212E-01    0.331E-02
DAV:   4    -0.384030308793E+02    0.17070E-04   -0.74984E-05 11056   0.124E-01    0.718E-03
DAV:   5    -0.384030322964E+02   -0.14171E-05   -0.21159E-05 10684   0.431E-02    0.465E-03
DAV:   6    -0.384030322565E+02    0.39935E-07   -0.17650E-06 12132   0.218E-02    0.264E-03
DAV:   7    -0.384030322982E+02   -0.41739E-07   -0.51148E-07 12204   0.915E-03    0.101E-03
DAV:   8    -0.384030323238E+02   -0.25589E-07   -0.13941E-07 13724   0.353E-03    0.423E-04
DAV:   9    -0.384030323311E+02   -0.72996E-08   -0.18374E-08  6464   0.181E-03
  22 F= -.38403032E+02 E0= -.38394712E+02  d E =-.337993E-03
 trial-energy change:   -0.000338  1 .order   -0.000337   -0.000405   -0.000270
 step:   0.1914(harm=  0.2032)  dis= 0.00922  next Energy=   -38.403282 (dE=-0.587E-03)
 bond charge predicted
       N       E                     dE             d eps       ncg     rms          rms(c)
DAV:   1    -0.384041572615E+02   -0.11249E-02   -0.43925E-01 10276   0.358E+00    0.262E-01
DAV:   2    -0.384037631871E+02    0.39407E-03   -0.82691E-03 12584   0.101E+00    0.152E-01
DAV:   3    -0.384033528652E+02    0.41032E-03   -0.91048E-04 12904   0.387E-01    0.604E-02
DAV:   4    -0.384032960885E+02    0.56777E-04   -0.24911E-04 10932   0.226E-01    0.130E-02
DAV:   5    -0.384033008301E+02   -0.47416E-05   -0.70654E-05 10668   0.795E-02    0.844E-03
DAV:   6    -0.384033006852E+02    0.14486E-06   -0.59437E-06 12140   0.399E-02    0.480E-03
DAV:   7    -0.384033007720E+02   -0.86761E-07   -0.16996E-06 11988   0.167E-02    0.184E-03
DAV:   8    -0.384033008297E+02   -0.57726E-07   -0.47145E-07 14016   0.646E-03    0.771E-04
DAV:   9    -0.384033008444E+02   -0.14677E-07   -0.65630E-08 10292   0.324E-03    0.437E-04
DAV:  10    -0.384033008579E+02   -0.13445E-07   -0.20146E-08  7324   0.141E-03    0.163E-04
DAV:  11    -0.384033008590E+02   -0.10982E-08   -0.53947E-09  5380   0.793E-04
  23 F= -.38403301E+02 E0= -.38395029E+02  d E =-.606521E-03
 curvature:  -2.53 expect dE=-0.420E-02 dE for cont linesearch -0.216E-05
 ZBRENT: extrapolating
 opt :   0.2037  next Energy=   -38.403303 (dE=-0.609E-03)
 bond charge predicted
       N       E                     dE             d eps       ncg     rms          rms(c)
DAV:   1    -0.384033089478E+02   -0.80900E-05   -0.42962E-03 10300   0.353E-01    0.259E-02
DAV:   2    -0.384033052268E+02    0.37210E-05   -0.80984E-05 12608   0.990E-02    0.150E-02
DAV:   3    -0.384033011054E+02    0.41214E-05   -0.88806E-06 12896   0.379E-02    0.591E-03
DAV:   4    -0.384033005626E+02    0.54281E-06   -0.23942E-06 11236   0.225E-02    0.129E-03
DAV:   5    -0.384033006072E+02   -0.44611E-07   -0.68061E-07 10704   0.764E-03    0.837E-04
DAV:   6    -0.384033006074E+02   -0.17917E-09   -0.55133E-08  9584   0.387E-03
  24 F= -.38403301E+02 E0= -.38395033E+02  d E =-.606270E-03
 curvature:  -2.56 expect dE=-0.442E-02 dE for cont linesearch -0.896E-08
 trial: gam= 0.12452 g(F)=  0.148E-02 g(S)=  0.245E-03 ort =-0.229E-04 (trialstep = 0.951E-01)
 search vector abs. value=  0.404E-02
 bond charge predicted
       N       E                     dE             d eps       ncg     rms          rms(c)
DAV:   1    -0.384034641735E+02   -0.16357E-03   -0.78324E-03 10088   0.512E-01    0.337E-02
DAV:   2    -0.384034657267E+02   -0.15532E-05   -0.24736E-04 11036   0.175E-01    0.185E-02
DAV:   3    -0.384034633749E+02    0.23518E-05   -0.19790E-05 12900   0.498E-02    0.935E-03
DAV:   4    -0.384034618146E+02    0.15603E-05   -0.33103E-06 13276   0.221E-02    0.267E-03
DAV:   5    -0.384034617255E+02    0.89080E-07   -0.10146E-06 10652   0.985E-03    0.763E-04
DAV:   6    -0.384034617282E+02   -0.26866E-08   -0.13043E-07 12404   0.391E-03    0.520E-04
DAV:   7    -0.384034617336E+02   -0.53274E-08   -0.19022E-08  6992   0.228E-03
  25 F= -.38403462E+02 E0= -.38395234E+02  d E =-.161126E-03
 ZBRENT: can't locate minimum, use default step
 trial-energy change:   -0.000161  1 .order   -0.000159   -0.000164   -0.000155
 step:   0.3804(harm=  1.6834)  dis= 0.00278  next Energy=   -38.404752 (dE=-0.145E-02)
 bond charge predicted
       N       E                     dE             d eps       ncg     rms          rms(c)
DAV:   1    -0.384039044626E+02   -0.44273E-03   -0.70545E-02 10088   0.154E+00    0.101E-01
DAV:   2    -0.384039185287E+02   -0.14066E-04   -0.22267E-03 11024   0.524E-01    0.555E-02
DAV:   3    -0.384038991677E+02    0.19361E-04   -0.17811E-04 12924   0.149E-01    0.280E-02
DAV:   4    -0.384038861246E+02    0.13043E-04   -0.29649E-05 13236   0.663E-02    0.806E-03
DAV:   5    -0.384038856974E+02    0.42716E-06   -0.91409E-06 10644   0.293E-02    0.229E-03
DAV:   6    -0.384038857215E+02   -0.24098E-07   -0.11750E-06 12812   0.117E-02    0.156E-03
DAV:   7    -0.384038857340E+02   -0.12492E-07   -0.18738E-07 12224   0.681E-03    0.819E-04
DAV:   8    -0.384038857598E+02   -0.25761E-07   -0.64858E-08 12156   0.232E-03    0.369E-04
DAV:   9    -0.384038857640E+02   -0.42824E-08   -0.14775E-08  5984   0.147E-03
  26 F= -.38403886E+02 E0= -.38395779E+02  d E =-.585157E-03
 curvature:  -0.65 expect dE=-0.818E-03 dE for cont linesearch -0.288E-03
 ZBRENT: increasing intervall
 opt :   0.9511  next Energy=   -38.404490 (dE=-0.119E-02)
 bond charge predicted
       N       E                     dE             d eps       ncg     rms          rms(c)
DAV:   1    -0.384045508788E+02   -0.66512E-03   -0.28238E-01 10084   0.308E+00    0.202E-01
DAV:   2    -0.384046102734E+02   -0.59395E-04   -0.89235E-03 11024   0.105E+00    0.111E-01
DAV:   3    -0.384045349941E+02    0.75279E-04   -0.71345E-04 13160   0.298E-01    0.559E-02
DAV:   4    -0.384044835696E+02    0.51424E-04   -0.11734E-04 13160   0.132E-01    0.161E-02
DAV:   5    -0.384044822630E+02    0.13066E-05   -0.36628E-05 10640   0.588E-02    0.458E-03
DAV:   6    -0.384044823584E+02   -0.95409E-07   -0.47192E-06 12944   0.238E-02    0.311E-03
DAV:   7    -0.384044823746E+02   -0.16194E-07   -0.75254E-07 12504   0.138E-02    0.164E-03
DAV:   8    -0.384044824336E+02   -0.59048E-07   -0.26485E-07 13860   0.462E-03    0.744E-04
DAV:   9    -0.384044824425E+02   -0.88912E-08   -0.71800E-08 13080   0.279E-03
  27 F= -.38404482E+02 E0= -.38396614E+02  d E =-.118184E-02
 curvature:  -1.35 expect dE=-0.236E-02 dE for cont linesearch -0.195E-03
 ZBRENT: increasing intervall
 opt :   2.0924  next Energy=   -38.404693 (dE=-0.139E-02)
 bond charge predicted
       N       E                     dE             d eps       ncg     rms          rms(c)
DAV:   1    -0.384049313007E+02   -0.44887E-03   -0.11316E+00 10084   0.620E+00    0.403E-01
DAV:   2    -0.384051938405E+02   -0.26254E-03   -0.35894E-02 11048   0.212E+00    0.221E-01
DAV:   3    -0.384049005275E+02    0.29331E-03   -0.28632E-03 13408   0.597E-01    0.112E-01
DAV:   4    -0.384046958369E+02    0.20469E-03   -0.46719E-04 13044   0.268E-01    0.322E-02
DAV:   5    -0.384046913091E+02    0.45277E-05   -0.14797E-04 10628   0.118E-01    0.921E-03
DAV:   6    -0.384046916657E+02   -0.35656E-06   -0.19522E-05 13288   0.489E-02    0.625E-03
DAV:   7    -0.384046916635E+02    0.21878E-08   -0.30700E-06 12664   0.280E-02    0.330E-03
DAV:   8    -0.384046918105E+02   -0.14701E-06   -0.10670E-06 13760   0.907E-03    0.152E-03
DAV:   9    -0.384046918249E+02   -0.14356E-07   -0.29113E-07 13196   0.558E-03    0.590E-04
DAV:  10    -0.384046918577E+02   -0.32810E-07   -0.46066E-08 10108   0.250E-03    0.347E-04
DAV:  11    -0.384046918701E+02   -0.12422E-07   -0.10681E-08  5756   0.101E-03    0.114E-04
DAV:  12    -0.384046918759E+02   -0.57480E-08   -0.53029E-09  5464   0.534E-04
  28 F= -.38404692E+02 E0= -.38397285E+02  d E =-.139127E-02
 curvature:  -1.46 expect dE=-0.100E-01 dE for cont linesearch -0.547E-04
 ZBRENT: bracketing found
 ZBRENT: interpolating
 opt :   1.7069  next Energy=   -38.404767 (dE=-0.147E-02)
 bond charge predicted
       N       E                     dE             d eps       ncg     rms          rms(c)
DAV:   1    -0.384047987440E+02   -0.10687E-03   -0.12845E-01 10088   0.207E+00    0.136E-01
DAV:   2    -0.384048228088E+02   -0.24065E-04   -0.40448E-03 10988   0.700E-01    0.742E-02
DAV:   3    -0.384047904915E+02    0.32317E-04   -0.32619E-04 12856   0.201E-01    0.374E-02
DAV:   4    -0.384047686788E+02    0.21813E-04   -0.54071E-05 13368   0.903E-02    0.110E-02
DAV:   5    -0.384047684688E+02    0.21001E-06   -0.16627E-05 10640   0.398E-02    0.309E-03
DAV:   6    -0.384047685156E+02   -0.46843E-07   -0.22025E-06 12880   0.158E-02    0.211E-03
DAV:   7    -0.384047684817E+02    0.33976E-07   -0.33938E-07 12696   0.918E-03    0.112E-03
DAV:   8    -0.384047684550E+02    0.26666E-07   -0.12236E-07 13676   0.315E-03    0.515E-04
DAV:   9    -0.384047684457E+02    0.92627E-08   -0.32879E-08 10228   0.189E-03
  29 F= -.38404768E+02 E0= -.38397208E+02  d E =-.146784E-02
 curvature:  -2.00 expect dE=-0.905E-02 dE for cont linesearch -0.109E-07
 trial: gam= 2.62018 g(F)=  0.351E-02 g(S)=  0.101E-02 ort =-0.469E-05 (trialstep = 0.523E-01)
 search vector abs. value=  0.322E-01
 bond charge predicted
       N       E                     dE             d eps       ncg     rms          rms(c)
DAV:   1    -0.384049110116E+02   -0.14256E-03   -0.19889E-02 10016   0.767E-01    0.285E-02
DAV:   2    -0.384049499602E+02   -0.38949E-04   -0.49864E-04 11612   0.148E-01    0.203E-02
DAV:   3    -0.384049466270E+02    0.33332E-05   -0.15597E-05 12928   0.310E-02    0.132E-02
DAV:   4    -0.384049449537E+02    0.16733E-05   -0.73829E-06 11664   0.246E-02    0.467E-03
DAV:   5    -0.384049448590E+02    0.94745E-07   -0.18832E-06 11460   0.133E-02    0.151E-03
DAV:   6    -0.384049448503E+02    0.86734E-08   -0.18444E-07 11948   0.417E-03    0.714E-04
DAV:   7    -0.384049448373E+02    0.12974E-07   -0.40826E-08  9028   0.181E-03    0.352E-04
DAV:   8    -0.384049448332E+02    0.41805E-08   -0.68687E-09  5568   0.105E-03
  30 F= -.38404945E+02 E0= -.38397471E+02  d E =-.176387E-03
 trial-energy change:   -0.000176  1 .order   -0.000176   -0.000236   -0.000115
 step:   0.0992(harm=  0.1023)  dis= 0.00190  next Energy=   -38.404997 (dE=-0.229E-03)
 bond charge predicted
       N       E                     dE             d eps       ncg     rms          rms(c)
DAV:   1    -0.384049742871E+02   -0.29450E-04   -0.15933E-02 10012   0.687E-01    0.255E-02
DAV:   2    -0.384050055734E+02   -0.31286E-04   -0.39997E-04 11616   0.132E-01    0.181E-02
DAV:   3    -0.384050029020E+02    0.26714E-05   -0.12562E-05 12920   0.277E-02    0.118E-02
DAV:   4    -0.384050015668E+02    0.13353E-05   -0.58809E-06 11656   0.219E-02    0.419E-03
DAV:   5    -0.384050014843E+02    0.82458E-07   -0.15051E-06 11464   0.119E-02    0.136E-03
DAV:   6    -0.384050014766E+02    0.76948E-08   -0.14627E-07 11844   0.378E-03    0.637E-04
DAV:   7    -0.384050014651E+02    0.11495E-07   -0.32235E-08  8192   0.163E-03    0.314E-04
DAV:   8    -0.384050014617E+02    0.33842E-08   -0.62834E-09  5528   0.992E-04
  31 F= -.38405001E+02 E0= -.38397604E+02  d E =-.233016E-03
 curvature:  -0.36 expect dE=-0.287E-03 dE for cont linesearch -0.185E-06
 trial: gam= 0.14445 g(F)=  0.520E-03 g(S)=  0.268E-03 ort = 0.128E-03 (trialstep = 0.617E-01)
 search vector abs. value=  0.150E-02
 bond charge predicted
       N       E                     dE             d eps       ncg     rms          rms(c)
DAV:   1    -0.384050504835E+02   -0.49018E-04   -0.11526E-03 10040   0.198E-01    0.135E-02
DAV:   2    -0.384050511236E+02   -0.64010E-06   -0.40893E-05 10996   0.659E-02    0.760E-03
DAV:   3    -0.384050507206E+02    0.40299E-06   -0.31010E-06 12848   0.188E-02    0.401E-03
DAV:   4    -0.384050505213E+02    0.19928E-06   -0.65732E-07 13104   0.116E-02    0.886E-04
DAV:   5    -0.384050505522E+02   -0.30906E-07   -0.21912E-07 10400   0.500E-03    0.420E-04
DAV:   6    -0.384050505578E+02   -0.55502E-08   -0.24347E-08  7456   0.198E-03
  32 F= -.38405051E+02 E0= -.38397669E+02  d E =-.490960E-04
 ZBRENT: can't locate minimum, use default step
 trial-energy change:   -0.000049  1 .order   -0.000049   -0.000050   -0.000048
 step:   0.2468(harm=  1.9613)  dis= 0.00097  next Energy=   -38.405793 (dE=-0.791E-03)
 bond charge predicted
       N       E                     dE             d eps       ncg     rms          rms(c)
DAV:   1    -0.384051880008E+02   -0.13745E-03   -0.10373E-02 10036   0.595E-01    0.406E-02
DAV:   2    -0.384051941383E+02   -0.61375E-05   -0.36857E-04 10996   0.198E-01    0.228E-02
DAV:   3    -0.384051899150E+02    0.42234E-05   -0.28001E-05 12848   0.567E-02    0.120E-02
DAV:   4    -0.384051877656E+02    0.21493E-05   -0.59295E-06 13064   0.350E-02    0.266E-03
DAV:   5    -0.384051878983E+02   -0.13265E-06   -0.19846E-06 10432   0.152E-02    0.126E-03
DAV:   6    -0.384051879204E+02   -0.22144E-07   -0.24279E-07 12304   0.596E-03    0.717E-04
DAV:   7    -0.384051879179E+02    0.24861E-08   -0.34574E-08  8152   0.353E-03
  33 F= -.38405188E+02 E0= -.38397852E+02  d E =-.186456E-03
 curvature:  -0.34 expect dE=-0.202E-03 dE for cont linesearch -0.113E-03
 ZBRENT: increasing intervall
 opt :   0.6169  next Energy=   -38.405424 (dE=-0.423E-03)
 bond charge predicted
       N       E                     dE             d eps       ncg     rms          rms(c)
DAV:   1    -0.384054276053E+02   -0.23968E-03   -0.41488E-02 10032   0.119E+00    0.813E-02
DAV:   2    -0.384054521967E+02   -0.24591E-04   -0.14740E-03 11004   0.396E-01    0.455E-02
DAV:   3    -0.384054346957E+02    0.17501E-04   -0.11202E-04 12848   0.113E-01    0.241E-02
DAV:   4    -0.384054257528E+02    0.89429E-05   -0.23792E-05 13144   0.699E-02    0.534E-03
DAV:   5    -0.384054261331E+02   -0.38036E-06   -0.79276E-06 10424   0.302E-02    0.252E-03
DAV:   6    -0.384054261921E+02   -0.59031E-07   -0.97031E-07 12352   0.119E-02    0.144E-03
DAV:   7    -0.384054261828E+02    0.93323E-08   -0.14306E-07 11360   0.705E-03    0.818E-04
DAV:   8    -0.384054261868E+02   -0.40054E-08   -0.63561E-08 11256   0.229E-03
  34 F= -.38405426E+02 E0= -.38398182E+02  d E =-.424725E-03
 curvature:  -0.70 expect dE=-0.289E-03 dE for cont linesearch -0.153E-03
 ZBRENT: increasing intervall
 opt :   1.3572  next Energy=   -38.405747 (dE=-0.745E-03)
 bond charge predicted
       N       E                     dE             d eps       ncg     rms          rms(c)
DAV:   1    -0.384057514396E+02   -0.32526E-03   -0.16583E-01 10040   0.237E+00    0.163E-01
DAV:   2    -0.384058497726E+02   -0.98333E-04   -0.58958E-03 11012   0.792E-01    0.910E-02
DAV:   3    -0.384057784858E+02    0.71287E-04   -0.44801E-04 12840   0.226E-01    0.482E-02
DAV:   4    -0.384057420263E+02    0.36459E-04   -0.95376E-05 13136   0.140E-01    0.107E-02
DAV:   5    -0.384057432586E+02   -0.12323E-05   -0.31798E-05 10408   0.605E-02    0.503E-03
DAV:   6    -0.384057434368E+02   -0.17816E-06   -0.38957E-06 12396   0.238E-02    0.287E-03
DAV:   7    -0.384057434006E+02    0.36161E-07   -0.57026E-07 11920   0.141E-02    0.164E-03
DAV:   8    -0.384057434151E+02   -0.14506E-07   -0.26099E-07 13272   0.456E-03    0.499E-04
DAV:   9    -0.384057434122E+02    0.29527E-08   -0.40761E-08 10616   0.194E-03
  35 F= -.38405743E+02 E0= -.38398680E+02  d E =-.741950E-03
 curvature:  -1.47 expect dE=-0.464E-03 dE for cont linesearch -0.801E-04
 ZBRENT: increasing intervall
 opt :   2.8378  next Energy=   -38.405744 (dE=-0.742E-03)
 bond charge predicted
       N       E                     dE             d eps       ncg     rms          rms(c)
DAV:   1    -0.384057805886E+02   -0.37173E-04   -0.66291E-01 10040   0.474E+00    0.326E-01
DAV:   2    -0.384061704836E+02   -0.38990E-03   -0.23609E-02 11000   0.158E+00    0.182E-01
DAV:   3    -0.384058823503E+02    0.28813E-03   -0.17981E-03 12828   0.455E-01    0.967E-02
DAV:   4    -0.384057354940E+02    0.14686E-03   -0.38548E-04 13208   0.284E-01    0.215E-02
DAV:   5    -0.384057397407E+02   -0.42467E-05   -0.12754E-04 10396   0.121E-01    0.100E-02
DAV:   6    -0.384057403372E+02   -0.59651E-06   -0.15674E-05 12428   0.476E-02    0.576E-03
DAV:   7    -0.384057401929E+02    0.14437E-06   -0.22684E-06 11904   0.284E-02    0.332E-03
DAV:   8    -0.384057402449E+02   -0.52071E-07   -0.10577E-06 13236   0.917E-03    0.104E-03
DAV:   9    -0.384057402358E+02    0.90881E-08   -0.17729E-07 12536   0.403E-03    0.564E-04
DAV:  10    -0.384057402248E+02    0.11048E-07   -0.35137E-08  9884   0.214E-03    0.304E-04
DAV:  11    -0.384057402201E+02    0.46603E-08   -0.84202E-09  5552   0.959E-04
  36 F= -.38405740E+02 E0= -.38399026E+02  d E =-.738758E-03
 curvature:  -0.00 expect dE=-0.524E-05 dE for cont linesearch -0.227E-06
 ZBRENT: bracketing found
 ZBRENT: interpolating
 opt :   2.0888  next Energy=   -38.405848 (dE=-0.846E-03)
 bond charge predicted
       N       E                     dE             d eps       ncg     rms          rms(c)
DAV:   1    -0.384058559103E+02   -0.11569E-03   -0.17007E-01 10044   0.242E+00    0.165E-01
DAV:   2    -0.384059622415E+02   -0.10633E-03   -0.60685E-03 10984   0.811E-01    0.928E-02
DAV:   3    -0.384058870392E+02    0.75202E-04   -0.46279E-04 12820   0.233E-01    0.490E-02
DAV:   4    -0.384058478892E+02    0.39150E-04   -0.10042E-04 13020   0.142E-01    0.107E-02
DAV:   5    -0.384058486521E+02   -0.76283E-06   -0.33030E-05 10404   0.615E-02    0.512E-03
DAV:   6    -0.384058486862E+02   -0.34128E-07   -0.39124E-06 12412   0.248E-02    0.287E-03
DAV:   7    -0.384058486539E+02    0.32273E-07   -0.59942E-07 11768   0.144E-02    0.161E-03
DAV:   8    -0.384058486632E+02   -0.93078E-08   -0.26131E-07 13364   0.470E-03    0.465E-04
DAV:   9    -0.384058486653E+02   -0.20609E-08   -0.37527E-08  9956   0.186E-03
  37 F= -.38405849E+02 E0= -.38398959E+02  d E =-.847204E-03
 curvature:  -1.83 expect dE=-0.112E-02 dE for cont linesearch -0.156E-09
 trial: gam= 0.88502 g(F)=  0.466E-03 g(S)=  0.146E-03 ort =-0.358E-06 (trialstep = 0.392E+00)
 search vector abs. value=  0.179E-02
 bond charge predicted
       N       E                     dE             d eps       ncg     rms          rms(c)
DAV:   1    -0.384058803807E+02   -0.31717E-04   -0.50580E-02 10048   0.129E+00    0.996E-02
DAV:   2    -0.384058993780E+02   -0.18997E-04   -0.17910E-03 11120   0.400E-01    0.656E-02
DAV:   3    -0.384058346515E+02    0.64726E-04   -0.19751E-04 12876   0.206E-01    0.295E-02
DAV:   4    -0.384058254519E+02    0.91996E-05   -0.56437E-05 12088   0.109E-01    0.921E-03
DAV:   5    -0.384058256606E+02   -0.20864E-06   -0.14997E-05 12396   0.324E-02    0.434E-03
DAV:   6    -0.384058255799E+02    0.80618E-07   -0.17570E-06 11700   0.187E-02    0.200E-03
DAV:   7    -0.384058255820E+02   -0.20123E-08   -0.51018E-07 11416   0.749E-03    0.105E-03
DAV:   8    -0.384058255835E+02   -0.15102E-08   -0.10130E-07 13096   0.359E-03    0.468E-04
DAV:   9    -0.384058255846E+02   -0.11751E-08   -0.18349E-08  6128   0.173E-03
  38 F= -.38405826E+02 E0= -.38399022E+02  d E =0.230807E-04
 trial-energy change:    0.000023  1 .order    0.000025   -0.000240    0.000290
 step:   0.1797(harm=  0.1774)  dis= 0.00048  next Energy=   -38.405904 (dE=-0.552E-04)
 bond charge predicted
       N       E                     dE             d eps       ncg     rms          rms(c)
DAV:   1    -0.384059212972E+02   -0.95714E-04   -0.14841E-02 10052   0.701E-01    0.540E-02
DAV:   2    -0.384059259553E+02   -0.46582E-05   -0.52478E-04 11124   0.216E-01    0.356E-02
DAV:   3    -0.384059065226E+02    0.19433E-04   -0.57464E-05 12876   0.111E-01    0.161E-02
DAV:   4    -0.384059037055E+02    0.28171E-05   -0.16347E-05 12072   0.585E-02    0.504E-03
DAV:   5    -0.384059038383E+02   -0.13285E-06   -0.43825E-06 12368   0.176E-02    0.235E-03
DAV:   6    -0.384059038299E+02    0.84215E-08   -0.51012E-07 11628   0.100E-02    0.109E-03
DAV:   7    -0.384059038490E+02   -0.19129E-07   -0.14921E-07 11344   0.412E-03    0.567E-04
DAV:   8    -0.384059038526E+02   -0.35279E-08   -0.24647E-08  7140   0.196E-03
  39 F= -.38405904E+02 E0= -.38399054E+02  d E =-.551873E-04
 curvature:  -0.26 expect dE=-0.193E-03 dE for cont linesearch -0.415E-08
 trial: gam= 1.22752 g(F)=  0.586E-03 g(S)=  0.160E-03 ort =-0.535E-05 (trialstep = 0.182E+00)
 search vector abs. value=  0.342E-02
 bond charge predicted
       N       E                     dE             d eps       ncg     rms          rms(c)
DAV:   1    -0.384061097998E+02   -0.20595E-03   -0.19637E-02 10000   0.877E-01    0.849E-02
DAV:   2    -0.384060604946E+02    0.49305E-04   -0.96902E-04 11448   0.388E-01    0.405E-02
DAV:   3    -0.384060399877E+02    0.20507E-04   -0.97522E-05 12064   0.106E-01    0.208E-02
DAV:   4    -0.384060316106E+02    0.83771E-05   -0.18938E-05 13392   0.525E-02    0.487E-03
DAV:   5    -0.384060315811E+02    0.29487E-07   -0.57612E-06 10468   0.197E-02    0.207E-03
DAV:   6    -0.384060315969E+02   -0.15778E-07   -0.54547E-07 13444   0.744E-03    0.114E-03
DAV:   7    -0.384060316053E+02   -0.83683E-08   -0.10377E-07 11744   0.477E-03    0.531E-04
DAV:   8    -0.384060316151E+02   -0.98416E-08   -0.18613E-08  6636   0.225E-03
  40 F= -.38406032E+02 E0= -.38399180E+02  d E =-.127763E-03
 ZBRENT: can't locate minimum, use default step
 trial-energy change:   -0.000128  1 .order   -0.000124   -0.000135   -0.000113
 step:   0.7293(harm=  1.1381)  dis= 0.00292  next Energy=   -38.406325 (dE=-0.421E-03)
 bond charge predicted
       N       E                     dE             d eps       ncg     rms          rms(c)
DAV:   1    -0.384069658179E+02   -0.93421E-03   -0.17675E-01  9996   0.264E+00    0.254E-01
DAV:   2    -0.384065214798E+02    0.44434E-03   -0.87302E-03 11432   0.117E+00    0.122E-01
DAV:   3    -0.384063415331E+02    0.17995E-03   -0.89228E-04 12132   0.322E-01    0.623E-02
DAV:   4    -0.384062675251E+02    0.74008E-04   -0.16975E-04 13392   0.159E-01    0.147E-02
DAV:   5    -0.384062678160E+02   -0.29094E-06   -0.52009E-05 10468   0.589E-02    0.620E-03
DAV:   6    -0.384062678870E+02   -0.71006E-07   -0.49744E-06 13340   0.224E-02    0.343E-03
DAV:   7    -0.384062678970E+02   -0.99740E-08   -0.94862E-07 11996   0.144E-02    0.160E-03
DAV:   8    -0.384062679365E+02   -0.39545E-07   -0.20405E-07 12692   0.678E-03    0.609E-04
DAV:   9    -0.384062679503E+02   -0.13819E-07   -0.46775E-08  9620   0.248E-03    0.326E-04
DAV:  10    -0.384062679626E+02   -0.12226E-07   -0.99788E-09  5580   0.134E-03    0.136E-04
DAV:  11    -0.384062679650E+02   -0.24552E-08   -0.27706E-09  5340   0.745E-04
  41 F= -.38406268E+02 E0= -.38399409E+02  d E =-.364112E-03
 curvature:  -2.15 expect dE=-0.500E-03 dE for cont linesearch -0.431E-04
 ZBRENT: increasing intervall
 opt :   1.8232  next Energy=   -38.406162 (dE=-0.258E-03)
 bond charge predicted
       N       E                     dE             d eps       ncg     rms          rms(c)
DAV:   1    -0.384089393210E+02   -0.26714E-02   -0.70700E-01 10000   0.529E+00    0.508E-01
DAV:   2    -0.384071857056E+02    0.17536E-02   -0.34987E-02 11424   0.236E+00    0.243E-01
DAV:   3    -0.384064770704E+02    0.70864E-03   -0.36379E-03 12208   0.650E-01    0.124E-01
DAV:   4    -0.384061824925E+02    0.29458E-03   -0.67581E-04 13376   0.323E-01    0.298E-02
DAV:   5    -0.384061838505E+02   -0.13580E-05   -0.20920E-04 10480   0.117E-01    0.123E-02
DAV:   6    -0.384061840586E+02   -0.20807E-06   -0.19991E-05 13392   0.450E-02    0.685E-03
DAV:   7    -0.384061840427E+02    0.15908E-07   -0.37812E-06 11952   0.287E-02    0.318E-03
DAV:   8    -0.384061841449E+02   -0.10225E-06   -0.81007E-07 12628   0.138E-02    0.120E-03
DAV:   9    -0.384061841787E+02   -0.33822E-07   -0.18426E-07 11784   0.506E-03    0.647E-04
DAV:  10    -0.384061842051E+02   -0.26386E-07   -0.41754E-08  9820   0.256E-03    0.267E-04
DAV:  11    -0.384061842094E+02   -0.42337E-08   -0.75877E-09  5608   0.139E-03
  42 F= -.38406184E+02 E0= -.38399306E+02  d E =-.280357E-03
 curvature:   5.31 expect dE= 0.609E-02 dE for cont linesearch  0.323E-03
 ZBRENT: bracketing found
 ZBRENT: interpolating
 opt :   1.1280  next Energy=   -38.406320 (dE=-0.416E-03)
 bond charge predicted
       N       E                     dE             d eps       ncg     rms          rms(c)
DAV:   1    -0.384074657171E+02   -0.12815E-02   -0.28486E-01 10000   0.332E+00    0.322E-01
DAV:   2    -0.384067414561E+02    0.72426E-03   -0.13984E-02 11436   0.146E+00    0.154E-01
DAV:   3    -0.384064518985E+02    0.28956E-03   -0.13888E-03 12044   0.400E-01    0.792E-02
DAV:   4    -0.384063350763E+02    0.11682E-03   -0.27146E-04 13244   0.195E-01    0.185E-02
DAV:   5    -0.384063366364E+02   -0.15601E-05   -0.83307E-05 10484   0.747E-02    0.793E-03
DAV:   6    -0.384063366326E+02    0.37771E-08   -0.75621E-06 13440   0.274E-02    0.437E-03
DAV:   7    -0.384063365550E+02    0.77609E-07   -0.14907E-06 12100   0.166E-02    0.199E-03
DAV:   8    -0.384063365404E+02    0.14661E-07   -0.30136E-07 12400   0.839E-03    0.756E-04
DAV:   9    -0.384063365292E+02    0.11179E-07   -0.71206E-08 10168   0.329E-03    0.408E-04
DAV:  10    -0.384063365164E+02    0.12742E-07   -0.15148E-08  5816   0.157E-03    0.166E-04
DAV:  11    -0.384063365136E+02    0.28595E-08   -0.41018E-09  5412   0.902E-04
  43 F= -.38406337E+02 E0= -.38399471E+02  d E =-.432661E-03
 curvature:  -0.86 expect dE=-0.278E-03 dE for cont linesearch -0.922E-10
 trial: gam= 0.42569 g(F)=  0.213E-03 g(S)=  0.110E-03 ort =-0.606E-06 (trialstep = 0.371E+00)
 search vector abs. value=  0.943E-03
 bond charge predicted
       N       E                     dE             d eps       ncg     rms          rms(c)
DAV:   1    -0.384065766879E+02   -0.24017E-03   -0.24847E-02 10120   0.112E+00    0.117E-01
DAV:   2    -0.384064708704E+02    0.10582E-03   -0.21212E-03 11368   0.585E-01    0.461E-02
DAV:   3    -0.384064523145E+02    0.18556E-04   -0.16758E-04 13204   0.128E-01    0.246E-02
DAV:   4    -0.384064404346E+02    0.11880E-04   -0.27676E-05 13212   0.550E-02    0.747E-03
DAV:   5    -0.384064396340E+02    0.80067E-06   -0.67940E-06 11216   0.222E-02    0.280E-03
DAV:   6    -0.384064395459E+02    0.88062E-07   -0.11149E-06 14716   0.879E-03    0.126E-03
DAV:   7    -0.384064395458E+02    0.75488E-10   -0.24836E-07 11892   0.475E-03    0.629E-04
DAV:   8    -0.384064395567E+02   -0.10928E-07   -0.30713E-08  8208   0.219E-03    0.308E-04
DAV:   9    -0.384064395672E+02   -0.10417E-07   -0.83238E-09  5524   0.148E-03    0.128E-04
DAV:  10    -0.384064395721E+02   -0.49590E-08   -0.37160E-09  5236   0.676E-04
  44 F= -.38406440E+02 E0= -.38399575E+02  d E =-.103059E-03
 trial-energy change:   -0.000103  1 .order   -0.000102   -0.000120   -0.000084
 step:   0.9515(harm=  1.2261)  dis= 0.00179  next Energy=   -38.406509 (dE=-0.173E-03)
 bond charge predicted
       N       E                     dE             d eps       ncg     rms          rms(c)
DAV:   1    -0.384068628311E+02   -0.42326E-03   -0.60581E-02 10124   0.174E+00    0.182E-01
DAV:   2    -0.384066044878E+02    0.25834E-03   -0.51656E-03 11392   0.913E-01    0.720E-02
DAV:   3    -0.384065599078E+02    0.44580E-04   -0.40731E-04 13192   0.199E-01    0.383E-02
DAV:   4    -0.384065313224E+02    0.28585E-04   -0.67275E-05 13220   0.858E-02    0.116E-02
DAV:   5    -0.384065295529E+02    0.17695E-05   -0.16498E-05 11200   0.345E-02    0.437E-03
DAV:   6    -0.384065293641E+02    0.18884E-06   -0.27197E-06 14700   0.136E-02    0.196E-03
DAV:   7    -0.384065293614E+02    0.27048E-08   -0.60560E-07 12116   0.740E-03    0.980E-04
DAV:   8    -0.384065293782E+02   -0.16885E-07   -0.79137E-08 10976   0.340E-03    0.477E-04
DAV:   9    -0.384065293934E+02   -0.15174E-07   -0.18852E-08  6364   0.217E-03    0.194E-04
DAV:  10    -0.384065294020E+02   -0.85552E-08   -0.65662E-09  5404   0.933E-04
  45 F= -.38406529E+02 E0= -.38399667E+02  d E =-.192888E-03
 curvature:  -1.60 expect dE=-0.170E-02 dE for cont linesearch -0.919E-05
 ZBRENT: extrapolating
 opt :   1.2321  next Energy=   -38.406540 (dE=-0.203E-03)
 bond charge predicted
       N       E                     dE             d eps       ncg     rms          rms(c)
DAV:   1    -0.384066189838E+02   -0.89590E-04   -0.14180E-02 10120   0.843E-01    0.881E-02
DAV:   2    -0.384065586464E+02    0.60337E-04   -0.12082E-03 11396   0.441E-01    0.348E-02
DAV:   3    -0.384065479000E+02    0.10746E-04   -0.95156E-05 13208   0.962E-02    0.185E-02
DAV:   4    -0.384065410563E+02    0.68437E-05   -0.15745E-05 13288   0.414E-02    0.563E-03
DAV:   5    -0.384065405626E+02    0.49375E-06   -0.38463E-06 11208   0.167E-02    0.212E-03
DAV:   6    -0.384065405062E+02    0.56330E-07   -0.63581E-07 14724   0.655E-03    0.948E-04
DAV:   7    -0.384065405072E+02   -0.99726E-09   -0.14079E-07 11736   0.354E-03    0.474E-04
DAV:   8    -0.384065405154E+02   -0.81427E-08   -0.15615E-08  5896   0.162E-03
  46 F= -.38406541E+02 E0= -.38399678E+02  d E =-.204002E-03
 curvature:  -1.80 expect dE=-0.315E-02 dE for cont linesearch -0.185E-08
 trial: gam= 5.41853 g(F)=  0.158E-02 g(S)=  0.174E-03 ort = 0.986E-06 (trialstep = 0.174E-01)
 search vector abs. value=  0.295E-01
 bond charge predicted
       N       E                     dE             d eps       ncg     rms          rms(c)
DAV:   1    -0.384065775022E+02   -0.36995E-04   -0.16676E-03 10156   0.305E-01    0.309E-02
DAV:   2    -0.384065714238E+02    0.60785E-05   -0.16078E-04 11796   0.162E-01    0.122E-02
DAV:   3    -0.384065700959E+02    0.13278E-05   -0.11981E-05 12752   0.330E-02    0.635E-03
DAV:   4    -0.384065691513E+02    0.94463E-06   -0.14274E-06 14288   0.146E-02    0.183E-03
DAV:   5    -0.384065690541E+02    0.97242E-07   -0.44293E-07 11136   0.565E-03    0.635E-04
DAV:   6    -0.384065690481E+02    0.59499E-08   -0.57244E-08 11856   0.211E-03
  47 F= -.38406569E+02 E0= -.38399701E+02  d E =-.285327E-04
 ZBRENT: can't locate minimum, use default step
 trial-energy change:   -0.000029  1 .order   -0.000028   -0.000031   -0.000026
 step:   0.0696(harm=  0.1074)  dis= 0.00072  next Energy=   -38.406635 (dE=-0.943E-04)
 bond charge predicted
       N       E                     dE             d eps       ncg     rms          rms(c)
DAV:   1    -0.384067039689E+02   -0.13491E-03   -0.15017E-02 10136   0.915E-01    0.929E-02
DAV:   2    -0.384066480544E+02    0.55915E-04   -0.14490E-03 11800   0.485E-01    0.366E-02
DAV:   3    -0.384066374475E+02    0.10607E-04   -0.10790E-04 12716   0.989E-02    0.191E-02
DAV:   4    -0.384066296995E+02    0.77480E-05   -0.12820E-05 14336   0.441E-02    0.551E-03
DAV:   5    -0.384066291532E+02    0.54631E-06   -0.39767E-06 11096   0.169E-02    0.190E-03
DAV:   6    -0.384066291231E+02    0.30016E-07   -0.53659E-07 15088   0.630E-03    0.970E-04
DAV:   7    -0.384066291299E+02   -0.67771E-08   -0.96906E-08 12384   0.336E-03
  48 F= -.38406629E+02 E0= -.38399744E+02  d E =-.886145E-04
 curvature:  -0.74 expect dE=-0.293E-03 dE for cont linesearch -0.147E-04
 ZBRENT: increasing intervall
 opt :   0.1741  next Energy=   -38.406635 (dE=-0.945E-04)
 bond charge predicted
       N       E                     dE             d eps       ncg     rms          rms(c)
DAV:   1    -0.384069310909E+02   -0.30197E-03   -0.60061E-02 10136   0.183E+00    0.186E-01
DAV:   2    -0.384067074878E+02    0.22360E-03   -0.57974E-03 11796   0.970E-01    0.733E-02
DAV:   3    -0.384066665754E+02    0.40912E-04   -0.43135E-04 12704   0.197E-01    0.381E-02
DAV:   4    -0.384066363784E+02    0.30197E-04   -0.51276E-05 14320   0.882E-02    0.111E-02
DAV:   5    -0.384066345156E+02    0.18628E-05   -0.15930E-05 11112   0.338E-02    0.380E-03
DAV:   6    -0.384066344149E+02    0.10075E-06   -0.21678E-06 15096   0.126E-02    0.194E-03
DAV:   7    -0.384066344164E+02   -0.15211E-08   -0.39206E-07 13104   0.676E-03    0.997E-04
DAV:   8    -0.384066344411E+02   -0.24693E-07   -0.74229E-08 10804   0.291E-03    0.444E-04
DAV:   9    -0.384066344538E+02   -0.12739E-07   -0.23283E-08  7216   0.171E-03    0.200E-04
DAV:  10    -0.384066344614E+02   -0.75561E-08   -0.48473E-09  5412   0.920E-04
  49 F= -.38406634E+02 E0= -.38399713E+02  d E =-.939460E-04
 curvature:  -0.30 expect dE=-0.186E-03 dE for cont linesearch -0.481E-05
 ZBRENT: bracketing found
 ZBRENT: interpolating
 opt :   0.1245  next Energy=   -38.406652 (dE=-0.111E-03)
 bond charge predicted
       N       E                     dE             d eps       ncg     rms          rms(c)
DAV:   1    -0.384067170641E+02   -0.82610E-04   -0.13511E-02 10136   0.866E-01    0.881E-02
DAV:   2    -0.384066658170E+02    0.51247E-04   -0.13073E-03 11776   0.460E-01    0.347E-02
DAV:   3    -0.384066575025E+02    0.83144E-05   -0.97256E-05 12672   0.942E-02    0.181E-02
DAV:   4    -0.384066512824E+02    0.62201E-05   -0.11722E-05 14256   0.421E-02    0.522E-03
DAV:   5    -0.384066511131E+02    0.16937E-06   -0.35966E-06 11096   0.161E-02    0.180E-03
DAV:   6    -0.384066511064E+02    0.66811E-08   -0.47966E-07 15088   0.596E-03    0.922E-04
DAV:   7    -0.384066510889E+02    0.17512E-07   -0.86324E-08 12216   0.311E-03    0.471E-04
DAV:   8    -0.384066510757E+02    0.13135E-07   -0.14072E-08  5860   0.138E-03    0.208E-04
DAV:   9    -0.384066510687E+02    0.70340E-08   -0.58665E-09  5392   0.100E-03
  50 F= -.38406651E+02 E0= -.38399747E+02  d E =-.110553E-03
 curvature:  -1.06 expect dE=-0.190E-03 dE for cont linesearch -0.258E-12
 trial: gam= 0.10363 g(F)=  0.100E-03 g(S)=  0.795E-04 ort =-0.848E-07 (trialstep = 0.388E-01)
 search vector abs. value=  0.496E-03
 bond charge predicted
       N       E                     dE             d eps       ncg     rms          rms(c)
DAV:   1    -0.384066577557E+02   -0.66799E-05   -0.13756E-04  9980   0.660E-02    0.340E-03
DAV:   2    -0.384066579995E+02   -0.24381E-06   -0.37948E-06 11332   0.157E-02    0.200E-03
DAV:   3    -0.384066579861E+02    0.13427E-07   -0.21136E-07 12256   0.429E-03    0.119E-03
DAV:   4    -0.384066579701E+02    0.15946E-07   -0.39184E-08 10328   0.245E-03    0.371E-04
DAV:   5    -0.384066579731E+02   -0.29681E-08   -0.13167E-08  5496   0.124E-03
  51 F= -.38406658E+02 E0= -.38399751E+02  d E =-.690437E-05
 ZBRENT: can't locate minimum, use default step
 trial-energy change:   -0.000007  1 .order   -0.000007   -0.000007   -0.000007
 step:   0.1553(harm=  2.2662)  dis= 0.00020  next Energy=   -38.406855 (dE=-0.204E-03)
 bond charge predicted
       N       E                     dE             d eps       ncg     rms          rms(c)
DAV:   1    -0.384066761448E+02   -0.18175E-04   -0.12385E-03  9976   0.198E-01    0.102E-02
DAV:   2    -0.384066783740E+02   -0.22292E-05   -0.34340E-05 11356   0.469E-02    0.603E-03
DAV:   3    -0.384066781797E+02    0.19428E-06   -0.18922E-06 12320   0.127E-02    0.358E-03
DAV:   4    -0.384066780481E+02    0.13164E-06   -0.35955E-07 11868   0.727E-03    0.112E-03
DAV:   5    -0.384066780562E+02   -0.80736E-08   -0.12580E-07 11576   0.349E-03    0.329E-04
DAV:   6    -0.384066780542E+02    0.19581E-08   -0.16540E-08  6008   0.161E-03
  52 F= -.38406678E+02 E0= -.38399765E+02  d E =-.269855E-04
 curvature:  -0.32 expect dE=-0.502E-04 dE for cont linesearch -0.181E-04
 ZBRENT: increasing intervall
 opt :   0.3883  next Energy=   -38.406715 (dE=-0.640E-04)
 bond charge predicted
       N       E                     dE             d eps       ncg     rms          rms(c)
DAV:   1    -0.384067077492E+02   -0.29693E-04   -0.49553E-03  9972   0.396E-01    0.204E-02
DAV:   2    -0.384067166820E+02   -0.89328E-05   -0.13768E-04 11344   0.939E-02    0.121E-02
DAV:   3    -0.384067158196E+02    0.86239E-06   -0.76310E-06 12344   0.258E-02    0.717E-03
DAV:   4    -0.384067152943E+02    0.52526E-06   -0.14594E-06 11856   0.148E-02    0.226E-03
DAV:   5    -0.384067153059E+02   -0.11580E-07   -0.50981E-07 11628   0.715E-03    0.660E-04
DAV:   6    -0.384067153040E+02    0.19527E-08   -0.78343E-08 10976   0.337E-03
  53 F= -.38406715E+02 E0= -.38399789E+02  d E =-.642353E-04
 curvature:  -0.65 expect dE=-0.868E-04 dE for cont linesearch -0.299E-04
 ZBRENT: increasing intervall
 opt :   0.8542  next Energy=   -38.406778 (dE=-0.127E-03)
 bond charge predicted
       N       E                     dE             d eps       ncg     rms          rms(c)
DAV:   1    -0.384067480552E+02   -0.32749E-04   -0.19819E-02  9972   0.792E-01    0.409E-02
DAV:   2    -0.384067838292E+02   -0.35774E-04   -0.55084E-04 11336   0.187E-01    0.242E-02
DAV:   3    -0.384067802185E+02    0.36108E-05   -0.30539E-05 12376   0.514E-02    0.143E-02
DAV:   4    -0.384067781240E+02    0.20945E-05   -0.58153E-06 11856   0.296E-02    0.452E-03
DAV:   5    -0.384067781309E+02   -0.69158E-08   -0.20420E-06 11632   0.143E-02    0.132E-03
DAV:   6    -0.384067781314E+02   -0.55752E-09   -0.31625E-07 11488   0.675E-03    0.869E-04
DAV:   7    -0.384067781195E+02    0.11963E-07   -0.47087E-08 10096   0.378E-03    0.358E-04
DAV:   8    -0.384067781164E+02    0.30259E-08   -0.12555E-08  5636   0.173E-03
  54 F= -.38406778E+02 E0= -.38399825E+02  d E =-.127048E-03
 curvature:  -1.36 expect dE=-0.146E-03 dE for cont linesearch -0.379E-04
 ZBRENT: increasing intervall
 opt :   1.7861  next Energy=   -38.406857 (dE=-0.206E-03)
 bond charge predicted
       N       E                     dE             d eps       ncg     rms          rms(c)
DAV:   1    -0.384067374329E+02    0.40687E-04   -0.79258E-02  9972   0.158E+00    0.816E-02
DAV:   2    -0.384068802046E+02   -0.14277E-03   -0.21993E-03 11320   0.374E-01    0.483E-02
DAV:   3    -0.384068653809E+02    0.14824E-04   -0.12197E-04 12368   0.102E-01    0.286E-02
DAV:   4    -0.384068570057E+02    0.83752E-05   -0.23097E-05 11840   0.589E-02    0.900E-03
DAV:   5    -0.384068569622E+02    0.43426E-07   -0.81888E-06 11640   0.285E-02    0.265E-03
DAV:   6    -0.384068569748E+02   -0.12606E-07   -0.12340E-06 11532   0.130E-02    0.172E-03
DAV:   7    -0.384068569437E+02    0.31105E-07   -0.19400E-07 13564   0.726E-03    0.714E-04
DAV:   8    -0.384068569397E+02    0.40677E-08   -0.51559E-08 10440   0.330E-03
  55 F= -.38406857E+02 E0= -.38399851E+02  d E =-.205871E-03
 curvature:  -2.82 expect dE=-0.396E-03 dE for cont linesearch -0.146E-04
 ZBRENT: increasing intervall
 opt :   3.6498  next Energy=   -38.406827 (dE=-0.176E-03)
 bond charge predicted
       N       E                     dE             d eps       ncg     rms          rms(c)
DAV:   1    -0.384063482135E+02    0.50873E-03   -0.31702E-01  9972   0.317E+00    0.163E-01
DAV:   2    -0.384069201906E+02   -0.57198E-03   -0.87998E-03 11312   0.746E-01    0.965E-02
DAV:   3    -0.384068603423E+02    0.59848E-04   -0.48876E-04 12576   0.201E-01    0.572E-02
DAV:   4    -0.384068267251E+02    0.33617E-04   -0.90640E-05 11940   0.117E-01    0.180E-02
DAV:   5    -0.384068263612E+02    0.36385E-06   -0.32460E-05 11688   0.566E-02    0.531E-03
DAV:   6    -0.384068264307E+02   -0.69504E-07   -0.48513E-06 11492   0.254E-02    0.345E-03
DAV:   7    -0.384068263344E+02    0.96315E-07   -0.75986E-07 13504   0.143E-02    0.143E-03
DAV:   8    -0.384068263277E+02    0.67466E-08   -0.20861E-07 12572   0.663E-03    0.538E-04
DAV:   9    -0.384068263328E+02   -0.50832E-08   -0.59213E-08 10172   0.201E-03
  56 F= -.38406826E+02 E0= -.38399713E+02  d E =-.175264E-03
 curvature:   5.85 expect dE= 0.320E-02 dE for cont linesearch  0.836E-04
 ZBRENT: bracketing found
 ZBRENT: interpolating
 opt :   2.4865  next Energy=   -38.406875 (dE=-0.224E-03)
 bond charge predicted
       N       E                     dE             d eps       ncg     rms          rms(c)
DAV:   1    -0.384066888174E+02    0.13751E-03   -0.12355E-01  9972   0.198E+00    0.102E-01
DAV:   2    -0.384069121057E+02   -0.22329E-03   -0.34418E-03 11344   0.474E-01    0.604E-02
DAV:   3    -0.384068882698E+02    0.23836E-04   -0.19321E-04 12344   0.131E-01    0.358E-02
DAV:   4    -0.384068752007E+02    0.13069E-04   -0.36918E-05 11816   0.740E-02    0.113E-02
DAV:   5    -0.384068748994E+02    0.30130E-06   -0.12754E-05 11648   0.354E-02    0.329E-03
DAV:   6    -0.384068749582E+02   -0.58818E-07   -0.19098E-06 11440   0.168E-02    0.215E-03
DAV:   7    -0.384068749492E+02    0.90631E-08   -0.30788E-07 13504   0.910E-03    0.884E-04
DAV:   8    -0.384068749584E+02   -0.92118E-08   -0.83815E-08 11148   0.409E-03
  57 F= -.38406875E+02 E0= -.38399829E+02  d E =-.223890E-03
 curvature:  -1.24 expect dE=-0.298E-03 dE for cont linesearch -0.362E-08
 trial: gam= 1.31367 g(F)=  0.233E-03 g(S)=  0.744E-05 ort = 0.120E-05 (trialstep = 0.238E+00)
 search vector abs. value=  0.110E-02
 bond charge predicted
       N       E                     dE             d eps       ncg     rms          rms(c)
DAV:   1    -0.384068821073E+02   -0.71581E-05   -0.11979E-02  9924   0.600E-01    0.309E-02
DAV:   2    -0.384069062777E+02   -0.24170E-04   -0.36121E-04 11068   0.132E-01    0.193E-02
DAV:   3    -0.384069038690E+02    0.24087E-05   -0.15879E-05 11760   0.352E-02    0.125E-02
DAV:   4    -0.384069025957E+02    0.12733E-05   -0.51747E-06 11772   0.267E-02    0.475E-03
DAV:   5    -0.384069026344E+02   -0.38784E-07   -0.14613E-06 11384   0.123E-02    0.143E-03
DAV:   6    -0.384069026598E+02   -0.25318E-07   -0.19338E-07 11540   0.563E-03    0.688E-04
DAV:   7    -0.384069026689E+02   -0.91363E-08   -0.42422E-08  8900   0.324E-03
  58 F= -.38406903E+02 E0= -.38399834E+02  d E =-.277105E-04
 trial-energy change:   -0.000028  1 .order   -0.000028   -0.000058    0.000002
 step:   0.2318(harm=  0.2320)  dis= 0.00038  next Energy=   -38.406903 (dE=-0.277E-04)
 bond charge predicted
       N       E                     dE             d eps       ncg     rms          rms(c)
DAV:   1    -0.384069026790E+02   -0.19246E-07   -0.90974E-06  9948   0.166E-02    0.834E-04
DAV:   2    -0.384069027056E+02   -0.26587E-07   -0.27714E-07 11244   0.386E-03    0.554E-04
DAV:   3    -0.384069027009E+02    0.46612E-08   -0.11221E-08  6644   0.112E-03
  59 F= -.38406903E+02 E0= -.38399835E+02  d E =-.277426E-04
 curvature:  -0.53 expect dE=-0.243E-03 dE for cont linesearch -0.307E-09
 trial: gam= 1.91602 g(F)=  0.401E-03 g(S)=  0.592E-04 ort = 0.800E-06 (trialstep = 0.579E-01)
 search vector abs. value=  0.450E-02
 bond charge predicted
       N       E                     dE             d eps       ncg     rms          rms(c)
DAV:   1    -0.384069258541E+02   -0.23149E-04   -0.27992E-03  9988   0.305E-01    0.197E-02
DAV:   2    -0.384069292267E+02   -0.33725E-05   -0.99448E-05 11108   0.101E-01    0.980E-03
DAV:   3    -0.384069290848E+02    0.14192E-06   -0.83326E-06 12240   0.278E-02    0.568E-03
DAV:   4    -0.384069288439E+02    0.24082E-06   -0.11806E-06 12300   0.136E-02    0.198E-03
DAV:   5    -0.384069288731E+02   -0.29167E-07   -0.29434E-07 11580   0.629E-03    0.603E-04
DAV:   6    -0.384069288800E+02   -0.69449E-08   -0.44662E-08  8884   0.300E-03
  60 F= -.38406929E+02 E0= -.38399861E+02  d E =-.261791E-04
 ZBRENT: can't locate minimum, use default step
 trial-energy change:   -0.000026  1 .order   -0.000026   -0.000027   -0.000025
 step:   0.2318(harm=  1.1669)  dis= 0.00082  next Energy=   -38.407172 (dE=-0.269E-03)
 bond charge predicted
       N       E                     dE             d eps       ncg     rms          rms(c)
DAV:   1    -0.384069752517E+02   -0.46379E-04   -0.25198E-02  9992   0.914E-01    0.590E-02
DAV:   2    -0.384070058494E+02   -0.30598E-04   -0.89063E-04 11136   0.303E-01    0.295E-02
DAV:   3    -0.384070035895E+02    0.22599E-05   -0.74572E-05 12184   0.829E-02    0.171E-02
DAV:   4    -0.384070009562E+02    0.26333E-05   -0.10596E-05 12288   0.411E-02    0.592E-03
DAV:   5    -0.384070009121E+02    0.44099E-07   -0.26828E-06 11596   0.190E-02    0.181E-03
DAV:   6    -0.384070009345E+02   -0.22368E-07   -0.42159E-07 11780   0.907E-03    0.918E-04
DAV:   7    -0.384070009301E+02    0.43269E-08   -0.78368E-08 10200   0.452E-03
  61 F= -.38407001E+02 E0= -.38399935E+02  d E =-.982292E-04
 curvature:  -1.64 expect dE=-0.538E-03 dE for cont linesearch -0.535E-04
 ZBRENT: increasing intervall
 opt :   0.5794  next Energy=   -38.407115 (dE=-0.212E-03)
 bond charge predicted
       N       E                     dE             d eps       ncg     rms          rms(c)
DAV:   1    -0.384070151159E+02   -0.14181E-04   -0.10078E-01  9992   0.183E+00    0.118E-01
DAV:   2    -0.384071370342E+02   -0.12192E-03   -0.35560E-03 11116   0.603E-01    0.589E-02
DAV:   3    -0.384071271012E+02    0.99330E-05   -0.29836E-04 12104   0.165E-01    0.342E-02
DAV:   4    -0.384071161778E+02    0.10923E-04   -0.42623E-05 12288   0.825E-02    0.119E-02
DAV:   5    -0.384071156984E+02    0.47942E-06   -0.10807E-05 11584   0.382E-02    0.363E-03
DAV:   6    -0.384071157493E+02   -0.50945E-07   -0.16997E-06 11852   0.180E-02    0.184E-03
DAV:   7    -0.384071157341E+02    0.15229E-07   -0.31500E-07 11360   0.910E-03    0.847E-04
DAV:   8    -0.384071157319E+02    0.22146E-08   -0.90899E-08 11736   0.349E-03
  62 F= -.38407116E+02 E0= -.38400053E+02  d E =-.213031E-03
 curvature:  -3.49 expect dE=-0.673E-03 dE for cont linesearch -0.585E-04
 ZBRENT: increasing intervall
 opt :   1.2748  next Energy=   -38.407232 (dE=-0.329E-03)
 bond charge predicted
       N       E                     dE             d eps       ncg     rms          rms(c)
DAV:   1    -0.384068318121E+02    0.28392E-03   -0.40302E-01  9992   0.365E+00    0.236E-01
DAV:   2    -0.384073156513E+02   -0.48384E-03   -0.14183E-02 11112   0.120E+00    0.118E-01
DAV:   3    -0.384072734718E+02    0.42180E-04   -0.11880E-03 12016   0.330E-01    0.683E-02
DAV:   4    -0.384072291199E+02    0.44352E-04   -0.17113E-04 12316   0.166E-01    0.238E-02
DAV:   5    -0.384072265801E+02    0.25398E-05   -0.43370E-05 11564   0.773E-02    0.727E-03
DAV:   6    -0.384072267171E+02   -0.13697E-06   -0.68657E-06 11900   0.357E-02    0.370E-03
DAV:   7    -0.384072266637E+02    0.53325E-07   -0.12580E-06 11344   0.183E-02    0.170E-03
DAV:   8    -0.384072266692E+02   -0.54574E-08   -0.36676E-07 12364   0.705E-03    0.653E-04
DAV:   9    -0.384072266686E+02    0.62846E-09   -0.65083E-08 10464   0.290E-03
  63 F= -.38407227E+02 E0= -.38400170E+02  d E =-.323968E-03
 curvature:  -6.90 expect dE=-0.967E-03 dE for cont linesearch -0.342E-05
 ZBRENT: extrapolating
 opt :   1.4191  next Energy=   -38.407230 (dE=-0.327E-03)
 bond charge predicted
       N       E                     dE             d eps       ncg     rms          rms(c)
DAV:   1    -0.384072107679E+02    0.15901E-04   -0.17369E-02 10004   0.759E-01    0.490E-02
DAV:   2    -0.384072317992E+02   -0.21031E-04   -0.61403E-04 11152   0.252E-01    0.245E-02
DAV:   3    -0.384072303318E+02    0.14674E-05   -0.51693E-05 12176   0.690E-02    0.142E-02
DAV:   4    -0.384072285510E+02    0.17808E-05   -0.73578E-06 12352   0.342E-02    0.490E-03
DAV:   5    -0.384072285446E+02    0.63983E-08   -0.18440E-06 11588   0.158E-02    0.150E-03
DAV:   6    -0.384072285634E+02   -0.18800E-07   -0.29130E-07 11796   0.752E-03    0.761E-04
DAV:   7    -0.384072285596E+02    0.37644E-08   -0.53709E-08  9724   0.376E-03
  64 F= -.38407229E+02 E0= -.38400172E+02  d E =-.325859E-03
 curvature:  -6.88 expect dE=-0.116E-02 dE for cont linesearch -0.217E-07
 trial: gam= 0.34883 g(F)=  0.109E-03 g(S)=  0.601E-04 ort =-0.376E-05 (trialstep = 0.330E+00)
 search vector abs. value=  0.714E-03
 bond charge predicted
       N       E                     dE             d eps       ncg     rms          rms(c)
DAV:   1    -0.384072557701E+02   -0.27207E-04   -0.14671E-02  9900   0.693E-01    0.411E-02
DAV:   2    -0.384072817518E+02   -0.25982E-04   -0.54158E-04 11012   0.221E-01    0.218E-02
DAV:   3    -0.384072805958E+02    0.11561E-05   -0.38323E-05 12076   0.565E-02    0.127E-02
DAV:   4    -0.384072791823E+02    0.14135E-05   -0.57117E-06 12748   0.254E-02    0.488E-03
DAV:   5    -0.384072789249E+02    0.25734E-06   -0.12810E-06 11840   0.111E-02    0.130E-03
DAV:   6    -0.384072789105E+02    0.14477E-07   -0.14581E-07 11680   0.431E-03    0.684E-04
DAV:   7    -0.384072789065E+02    0.39668E-08   -0.30954E-08  9216   0.193E-03
  65 F= -.38407279E+02 E0= -.38400232E+02  d E =-.503469E-04
 trial-energy change:   -0.000050  1 .order   -0.000050   -0.000055   -0.000045
 step:   1.1304(harm=  1.6995)  dis= 0.00170  next Energy=   -38.407338 (dE=-0.110E-03)
 bond charge predicted
       N       E                     dE             d eps       ncg     rms          rms(c)
DAV:   1    -0.384072198959E+02    0.59015E-04   -0.86189E-02  9900   0.168E+00    0.995E-02
DAV:   2    -0.384073714438E+02   -0.15155E-03   -0.31775E-03 11012   0.537E-01    0.527E-02
DAV:   3    -0.384073655375E+02    0.59063E-05   -0.22476E-04 12040   0.137E-01    0.308E-02
DAV:   4    -0.384073576522E+02    0.78852E-05   -0.33575E-05 12728   0.614E-02    0.118E-02
DAV:   5    -0.384073565455E+02    0.11067E-05   -0.75536E-06 11808   0.268E-02    0.315E-03
[...]
DAV:   2    -0.384097094560E+02   -0.19100E-06   -0.45933E-06 11452   0.208E-02    0.216E-03
DAV:   3    -0.384097094500E+02    0.59435E-08   -0.34528E-07 12100   0.603E-03    0.120E-03
DAV:   4    -0.384097094327E+02    0.17309E-07   -0.57495E-08 11376   0.320E-03    0.301E-04
DAV:   5    -0.384097094377E+02   -0.49558E-08   -0.19496E-08  5908   0.144E-03
 276 F= -.38409709E+02 E0= -.38401830E+02  d E =-.140093E-05
 curvature:  -0.70 expect dE=-0.713E-06 dE for cont linesearch -0.266E-06
 ZBRENT: increasing intervall
 opt :   1.7524  next Energy=   -38.409710 (dE=-0.180E-05)
 bond charge predicted
       N       E                     dE             d eps       ncg     rms          rms(c)
DAV:   1    -0.384097091697E+02    0.26304E-06   -0.51127E-04 10040   0.130E-01    0.772E-03
DAV:   2    -0.384097100377E+02   -0.86805E-06   -0.19005E-05 11280   0.427E-02    0.426E-03
DAV:   3    -0.384097099792E+02    0.58518E-07   -0.14096E-06 11836   0.122E-02    0.238E-03
DAV:   4    -0.384097099031E+02    0.76121E-07   -0.24320E-07 13180   0.637E-03    0.589E-04
DAV:   5    -0.384097099155E+02   -0.12410E-07   -0.79766E-08 10568   0.273E-03    0.264E-04
DAV:   6    -0.384097099138E+02    0.17094E-08   -0.62465E-09  5392   0.836E-04
 277 F= -.38409710E+02 E0= -.38401829E+02  d E =-.187704E-05
 curvature:  -1.04 expect dE=-0.354E-05 dE for cont linesearch -0.573E-08
 trial: gam= 2.00342 g(F)=  0.334E-05 g(S)=  0.657E-07 ort =-0.133E-06 (trialstep = 0.776E-01)
 search vector abs. value=  0.157E-04
 bond charge predicted
       N       E                     dE             d eps       ncg     rms          rms(c)
DAV:   1    -0.384097100726E+02   -0.15712E-06   -0.18256E-05  9976   0.232E-02    0.114E-03
DAV:   2    -0.384097101187E+02   -0.46061E-07   -0.57328E-07 11064   0.621E-03    0.838E-04
DAV:   3    -0.384097101211E+02   -0.24797E-08   -0.31517E-08 10716   0.171E-03
 278 F= -.38409710E+02 E0= -.38401831E+02  d E =-.207366E-06
 trial-energy change:   -0.000000  1 .order   -0.000000   -0.000000   -0.000000
 step:   0.2050(harm=  0.2050)  dis= 0.00005  next Energy=   -38.409710 (dE=-0.322E-06)
 bond charge predicted
       N       E                     dE             d eps       ncg     rms          rms(c)
DAV:   1    -0.384097101141E+02    0.45220E-08   -0.48644E-05  9956   0.377E-02    0.189E-03
DAV:   2    -0.384097102257E+02   -0.11157E-06   -0.14634E-06 11008   0.972E-03    0.140E-03
DAV:   3    -0.384097102250E+02    0.68076E-09   -0.83104E-08 11736   0.283E-03
 279 F= -.38409710E+02 E0= -.38401833E+02  d E =-.311257E-06
 curvature:  -0.51 expect dE=-0.257E-05 dE for cont linesearch -0.382E-08
 trial: gam= 1.53277 g(F)=  0.421E-05 g(S)=  0.789E-06 ort =-0.342E-06 (trialstep = 0.396E-01)
 search vector abs. value=  0.409E-04
 bond charge predicted
       N       E                     dE             d eps       ncg     rms          rms(c)
DAV:   1    -0.384097103834E+02   -0.15772E-06   -0.12102E-05  9948   0.184E-02    0.893E-04
DAV:   2    -0.384097104107E+02   -0.27305E-07   -0.29986E-07 11072   0.439E-03    0.556E-04
DAV:   3    -0.384097104055E+02    0.51896E-08   -0.14645E-08  7044   0.122E-03
 280 F= -.38409710E+02 E0= -.38401834E+02  d E =-.180517E-06
 ZBRENT: can't locate minimum, use default step
 trial-energy change:   -0.000000  1 .order   -0.000000   -0.000000   -0.000000
 step:   0.1585(harm=  1.6682)  dis= 0.00006  next Energy=   -38.409714 (dE=-0.374E-05)
 bond charge predicted
       N       E                     dE             d eps       ncg     rms          rms(c)
DAV:   1    -0.384097107595E+02   -0.34875E-06   -0.10990E-04  9924   0.548E-02    0.236E-03
DAV:   2    -0.384097109705E+02   -0.21104E-06   -0.26236E-06 10792   0.117E-02    0.155E-03
DAV:   3    -0.384097109507E+02    0.19845E-07   -0.10359E-07 11700   0.323E-03    0.890E-04
DAV:   4    -0.384097109433E+02    0.73283E-08   -0.24266E-08  9180   0.192E-03
 281 F= -.38409711E+02 E0= -.38401837E+02  d E =-.718320E-06
 curvature:  -1.07 expect dE=-0.609E-05 dE for cont linesearch -0.441E-06
 ZBRENT: increasing intervall
 opt :   0.3962  next Energy=   -38.409712 (dE=-0.163E-05)
 bond charge predicted
       N       E                     dE             d eps       ncg     rms          rms(c)
DAV:   1    -0.384097112216E+02   -0.27094E-06   -0.44048E-04  9924   0.110E-01    0.476E-03
DAV:   2    -0.384097120777E+02   -0.85609E-06   -0.10853E-05 10712   0.241E-02    0.310E-03
DAV:   3    -0.384097120102E+02    0.67495E-07   -0.44219E-07 11696   0.656E-03    0.180E-03
DAV:   4    -0.384097119831E+02    0.27089E-07   -0.10695E-07 11540   0.387E-03    0.417E-04
DAV:   5    -0.384097119773E+02    0.58085E-08   -0.33866E-08  9572   0.181E-03
 282 F= -.38409712E+02 E0= -.38401843E+02  d E =-.175229E-05
 curvature:  -2.21 expect dE=-0.146E-04 dE for cont linesearch -0.853E-06
 ZBRENT: increasing intervall
 opt :   0.8716  next Energy=   -38.409714 (dE=-0.358E-05)
 bond charge predicted
       N       E                     dE             d eps       ncg     rms          rms(c)
DAV:   1    -0.384097108934E+02    0.10897E-05   -0.17613E-03  9920   0.220E-01    0.946E-03
DAV:   2    -0.384097142600E+02   -0.33667E-05   -0.43337E-05 10688   0.479E-02    0.619E-03
DAV:   3    -0.384097140141E+02    0.24598E-06   -0.17432E-06 11684   0.129E-02    0.357E-03
DAV:   4    -0.384097139054E+02    0.10864E-06   -0.42981E-07 11844   0.765E-03    0.831E-04
DAV:   5    -0.384097138968E+02    0.85843E-08   -0.13417E-07 10580   0.356E-03    0.400E-04
DAV:   6    -0.384097138956E+02    0.12574E-08   -0.85338E-09  5920   0.105E-03
 283 F= -.38409714E+02 E0= -.38401855E+02  d E =-.367055E-05
 curvature:  -4.73 expect dE=-0.375E-04 dE for cont linesearch -0.129E-05
 ZBRENT: increasing intervall
 opt :   1.8225  next Energy=   -38.409716 (dE=-0.626E-05)
 bond charge predicted
       N       E                     dE             d eps       ncg     rms          rms(c)
DAV:   1    -0.384097051966E+02    0.87002E-05   -0.70466E-03  9920   0.439E-01    0.189E-02
DAV:   2    -0.384097185063E+02   -0.13310E-04   -0.17310E-04 10688   0.960E-02    0.124E-02
DAV:   3    -0.384097175646E+02    0.94169E-06   -0.69767E-06 11692   0.260E-02    0.714E-03
DAV:   4    -0.384097171285E+02    0.43611E-06   -0.17359E-06 11848   0.154E-02    0.166E-03
DAV:   5    -0.384097171200E+02    0.84760E-08   -0.53926E-07 10608   0.715E-03    0.801E-04
DAV:   6    -0.384097171168E+02    0.32251E-08   -0.42484E-08 11228   0.213E-03
 284 F= -.38409717E+02 E0= -.38401878E+02  d E =-.689176E-05
 curvature:  -9.45 expect dE=-0.111E-03 dE for cont linesearch -0.126E-05
 trial: gam= 1.00179 g(F)=  0.949E-05 g(S)=  0.222E-05 ort = 0.234E-05 (trialstep = 0.282E+00)
 search vector abs. value=  0.574E-04
 bond charge predicted
       N       E                     dE             d eps       ncg     rms          rms(c)
DAV:   1    -0.384097140869E+02    0.30331E-05   -0.90731E-04  9900   0.168E-01    0.905E-03
DAV:   2    -0.384097166546E+02   -0.25677E-05   -0.37947E-05 11348   0.529E-02    0.637E-03
DAV:   3    -0.384097163411E+02    0.31352E-06   -0.21534E-06 11688   0.124E-02    0.411E-03
DAV:   4    -0.384097161252E+02    0.21586E-06   -0.46390E-07 13316   0.768E-03    0.128E-03
DAV:   5    -0.384097161146E+02    0.10577E-07   -0.13440E-07 11800   0.431E-03    0.392E-04
DAV:   6    -0.384097161172E+02   -0.25730E-08   -0.14992E-08  5808   0.113E-03
 285 F= -.38409716E+02 E0= -.38401874E+02  d E =0.999582E-06
 trial-energy change:    0.000001  1 .order    0.000001   -0.000004    0.000006
 step:   0.1140(harm=  0.1110)  dis= 0.00004  next Energy=   -38.409718 (dE=-0.806E-06)
 bond charge predicted
       N       E                     dE             d eps       ncg     rms          rms(c)
DAV:   1    -0.384097170954E+02   -0.98080E-06   -0.32102E-04  9904   0.996E-02    0.536E-03
DAV:   2    -0.384097180198E+02   -0.92440E-06   -0.13302E-05 11288   0.313E-02    0.377E-03
DAV:   3    -0.384097179739E+02    0.45927E-07   -0.75742E-07 11656   0.738E-03    0.243E-03
DAV:   4    -0.384097179284E+02    0.45481E-07   -0.16418E-07 13280   0.460E-03    0.755E-04
DAV:   5    -0.384097179351E+02   -0.67093E-08   -0.47237E-08 10232   0.258E-03
 286 F= -.38409718E+02 E0= -.38401878E+02  d E =-.818341E-06
 curvature:  -0.23 expect dE=-0.866E-06 dE for cont linesearch -0.420E-09
 trial: gam= 0.56531 g(F)=  0.354E-05 g(S)=  0.277E-06 ort = 0.326E-06 (trialstep = 0.248E+00)
 search vector abs. value=  0.225E-04
 bond charge predicted
       N       E                     dE             d eps       ncg     rms          rms(c)
DAV:   1    -0.384097183411E+02   -0.41265E-06   -0.26951E-04  9896   0.896E-02    0.470E-03
DAV:   2    -0.384097189096E+02   -0.56857E-06   -0.86972E-06 11032   0.250E-02    0.282E-03
DAV:   3    -0.384097188332E+02    0.76388E-07   -0.50211E-07 11948   0.694E-03    0.160E-03
DAV:   4    -0.384097187966E+02    0.36659E-07   -0.92880E-08 12500   0.404E-03    0.371E-04
DAV:   5    -0.384097187936E+02    0.30122E-08   -0.33665E-08  9712   0.182E-03
 287 F= -.38409719E+02 E0= -.38401880E+02  d E =-.858445E-06
 trial-energy change:   -0.000001  1 .order   -0.000001   -0.000001   -0.000001
 step:   0.8123(harm=  0.8123)  dis= 0.00023  next Energy=   -38.409720 (dE=-0.163E-05)
 bond charge predicted
       N       E                     dE             d eps       ncg     rms          rms(c)
DAV:   1    -0.384097167610E+02    0.20356E-05   -0.13900E-03  9900   0.203E-01    0.107E-02
DAV:   2    -0.384097196761E+02   -0.29151E-05   -0.44804E-05 10992   0.567E-02    0.640E-03
DAV:   3    -0.384097193617E+02    0.31439E-06   -0.26197E-06 12092   0.158E-02    0.364E-03
DAV:   4    -0.384097191822E+02    0.17956E-06   -0.47297E-07 12756   0.924E-03    0.846E-04
DAV:   5    -0.384097191797E+02    0.25016E-08   -0.17099E-07 10560   0.410E-03    0.398E-04
DAV:   6    -0.384097191813E+02   -0.16189E-08   -0.14250E-08  6188   0.107E-03
 288 F= -.38409719E+02 E0= -.38401882E+02  d E =-.124615E-05
 curvature:  -2.29 expect dE=-0.512E-04 dE for cont linesearch -0.390E-08
 trial: gam= 4.08327 g(F)=  0.201E-04 g(S)=  0.226E-05 ort = 0.196E-06 (trialstep = 0.204E-01)
 search vector abs. value=  0.400E-03
 bond charge predicted
       N       E                     dE             d eps       ncg     rms          rms(c)
DAV:   1    -0.384097195693E+02   -0.38968E-06   -0.32889E-05  9888   0.302E-02    0.133E-03
DAV:   2    -0.384097196540E+02   -0.84643E-07   -0.94102E-07 10992   0.636E-03    0.938E-04
DAV:   3    -0.384097196490E+02    0.50086E-08   -0.26072E-08 10408   0.150E-03
 289 F= -.38409720E+02 E0= -.38401884E+02  d E =-.467694E-06
 ZBRENT: can't locate minimum, use default step
 trial-energy change:   -0.000000  1 .order   -0.000000   -0.000000   -0.000000
 step:   0.0815(harm=  0.1850)  dis= 0.00009  next Energy=   -38.409721 (dE=-0.214E-05)
 bond charge predicted
       N       E                     dE             d eps       ncg     rms          rms(c)
DAV:   1    -0.384097199637E+02   -0.30971E-06   -0.29253E-04  9884   0.899E-02    0.394E-03
DAV:   2    -0.384097206247E+02   -0.66097E-06   -0.80691E-06 10760   0.183E-02    0.277E-03
DAV:   3    -0.384097205657E+02    0.58902E-07   -0.21779E-07 11708   0.369E-03    0.165E-03
DAV:   4    -0.384097205500E+02    0.15756E-07   -0.84690E-08 11488   0.334E-03    0.441E-04
DAV:   5    -0.384097205475E+02    0.24761E-08   -0.26754E-08  8600   0.201E-03
 290 F= -.38409721E+02 E0= -.38401888E+02  d E =-.136625E-05
 curvature:  -0.96 expect dE=-0.292E-05 dE for cont linesearch -0.138E-06
 ZBRENT: increasing intervall
 opt :   0.2037  next Energy=   -38.409720 (dE=-0.694E-06)
 bond charge predicted
       N       E                     dE             d eps       ncg     rms          rms(c)
DAV:   1    -0.384097177621E+02    0.27879E-05   -0.11755E-03  9884   0.180E-01    0.784E-03
DAV:   2    -0.384097204549E+02   -0.26928E-05   -0.33135E-05 10696   0.377E-02    0.550E-03
DAV:   3    -0.384097202160E+02    0.23890E-06   -0.92048E-07 11676   0.886E-03    0.332E-03
DAV:   4    -0.384097201267E+02    0.89271E-07   -0.37738E-07 12416   0.849E-03    0.967E-04
DAV:   5    -0.384097201244E+02    0.23042E-08   -0.12012E-07 11240   0.494E-03    0.383E-04
DAV:   6    -0.384097201228E+02    0.15721E-08   -0.16255E-08  5900   0.104E-03
 291 F= -.38409720E+02 E0= -.38401894E+02  d E =-.941568E-06
 curvature:   4.69 expect dE= 0.128E-03 dE for cont linesearch  0.335E-05
 ZBRENT: bracketing found
 ZBRENT: interpolating
 opt :   0.1192  next Energy=   -38.409721 (dE=-0.151E-05)
 bond charge predicted
       N       E                     dE             d eps       ncg     rms          rms(c)
DAV:   1    -0.384097197082E+02    0.41622E-06   -0.55980E-04  9884   0.124E-01    0.540E-03
DAV:   2    -0.384097209233E+02   -0.12151E-05   -0.15745E-05 10660   0.260E-02    0.379E-03
DAV:   3    -0.384097207984E+02    0.12483E-06   -0.44262E-07 11676   0.608E-03    0.229E-03
DAV:   4    -0.384097207286E+02    0.69796E-07   -0.17972E-07 12412   0.583E-03    0.668E-04
DAV:   5    -0.384097207336E+02   -0.50009E-08   -0.57195E-08 10368   0.340E-03
 292 F= -.38409721E+02 E0= -.38401890E+02  d E =-.155237E-05
 curvature:  -0.20 expect dE=-0.734E-06 dE for cont linesearch -0.133E-09
 trial: gam= 0.26317 g(F)=  0.362E-05 g(S)=  0.547E-07 ort = 0.516E-06 (trialstep = 0.401E-01)
 search vector abs. value=  0.316E-04
 bond charge predicted
       N       E                     dE             d eps       ncg     rms          rms(c)
DAV:   1    -0.384097208740E+02   -0.14541E-06   -0.96365E-06  9912   0.162E-02    0.668E-04
DAV:   2    -0.384097208928E+02   -0.18797E-07   -0.23293E-07 10920   0.342E-03    0.469E-04
DAV:   3    -0.384097208882E+02    0.46243E-08   -0.73473E-09  6136   0.904E-04
 293 F= -.38409721E+02 E0= -.38401890E+02  d E =-.154584E-06
 ZBRENT: can't locate minimum, use default step
 trial-energy change:   -0.000000  1 .order   -0.000000   -0.000000   -0.000000
 step:   0.1606(harm=  2.2108)  dis= 0.00005  next Energy=   -38.409725 (dE=-0.421E-05)
 bond charge predicted
       N       E                     dE             d eps       ncg     rms          rms(c)
DAV:   1    -0.384097211938E+02   -0.30097E-06   -0.87033E-05  9904   0.487E-02    0.206E-03
DAV:   2    -0.384097213633E+02   -0.16947E-06   -0.21191E-06 10880   0.103E-02    0.141E-03
DAV:   3    -0.384097213414E+02    0.21901E-07   -0.73677E-08 11712   0.259E-03    0.794E-04
DAV:   4    -0.384097213327E+02    0.86429E-08   -0.18789E-08  8680   0.184E-03
 294 F= -.38409721E+02 E0= -.38401890E+02  d E =-.599106E-06
 curvature:  -0.99 expect dE=-0.366E-05 dE for cont linesearch -0.388E-06
 ZBRENT: increasing intervall
 opt :   0.4014  next Energy=   -38.409722 (dE=-0.139E-05)
 bond charge predicted
       N       E                     dE             d eps       ncg     rms          rms(c)
DAV:   1    -0.384097215911E+02   -0.24974E-06   -0.34923E-04  9900   0.977E-02    0.413E-03
DAV:   2    -0.384097222815E+02   -0.69034E-06   -0.87271E-06 10756   0.214E-02    0.282E-03
DAV:   3    -0.384097222148E+02    0.66632E-07   -0.31982E-07 11808   0.562E-03    0.161E-03
DAV:   4    -0.384097221846E+02    0.30289E-07   -0.84222E-08 11836   0.402E-03    0.379E-04
DAV:   5    -0.384097221804E+02    0.41528E-08   -0.26608E-08  8952   0.207E-03
 295 F= -.38409722E+02 E0= -.38401889E+02  d E =-.144676E-05
 curvature:  -2.03 expect dE=-0.753E-05 dE for cont linesearch -0.678E-06
 ZBRENT: increasing intervall
 opt :   0.8831  next Energy=   -38.409724 (dE=-0.288E-05)
 bond charge predicted
       N       E                     dE             d eps       ncg     rms          rms(c)
DAV:   1    -0.384097213391E+02    0.84541E-06   -0.13973E-03  9904   0.195E-01    0.824E-03
DAV:   2    -0.384097240680E+02   -0.27289E-05   -0.34984E-05 10772   0.427E-02    0.565E-03
DAV:   3    -0.384097238326E+02    0.23545E-06   -0.12759E-06 11816   0.110E-02    0.321E-03
DAV:   4    -0.384097237241E+02    0.10844E-06   -0.34236E-07 12264   0.773E-03    0.750E-04
DAV:   5    -0.384097237177E+02    0.64492E-08   -0.10936E-07 10576   0.393E-03    0.365E-04
DAV:   6    -0.384097237144E+02    0.32760E-08   -0.10038E-08  5928   0.131E-03
 296 F= -.38409724E+02 E0= -.38401887E+02  d E =-.298074E-05
 curvature:  -4.30 expect dE=-0.175E-04 dE for cont linesearch -0.994E-06
 ZBRENT: increasing intervall
 opt :   1.8465  next Energy=   -38.409726 (dE=-0.506E-05)
 bond charge predicted
       N       E                     dE             d eps       ncg     rms          rms(c)
DAV:   1    -0.384097166475E+02    0.70701E-05   -0.55893E-03  9904   0.391E-01    0.164E-02
DAV:   2    -0.384097274371E+02   -0.10790E-04   -0.13940E-04 10780   0.855E-02    0.113E-02
DAV:   3    -0.384097265537E+02    0.88338E-06   -0.50437E-06 11808   0.222E-02    0.639E-03
DAV:   4    -0.384097261434E+02    0.41032E-06   -0.13658E-06 12240   0.156E-02    0.149E-03
DAV:   5    -0.384097261387E+02    0.46875E-08   -0.43355E-07 10716   0.799E-03    0.729E-04
DAV:   6    -0.384097261314E+02    0.72978E-08   -0.49395E-08 10564   0.259E-03
 297 F= -.38409726E+02 E0= -.38401883E+02  d E =-.539780E-05
 curvature:  -8.99 expect dE=-0.547E-04 dE for cont linesearch -0.924E-06
 ZBRENT: increasing intervall
 opt :   3.7733  next Energy=   -38.409728 (dE=-0.713E-05)
 bond charge predicted
       N       E                     dE             d eps       ncg     rms          rms(c)
DAV:   1    -0.384096902355E+02    0.35903E-04   -0.22354E-02  9904   0.782E-01    0.329E-02
DAV:   2    -0.384097333067E+02   -0.43071E-04   -0.55807E-04 10760   0.171E-01    0.226E-02
DAV:   3    -0.384097299361E+02    0.33706E-05   -0.20425E-05 11824   0.449E-02    0.128E-02
DAV:   4    -0.384097283491E+02    0.15870E-05   -0.54929E-06 12220   0.313E-02    0.297E-03
DAV:   5    -0.384097283694E+02   -0.20393E-07   -0.17400E-06 10688   0.160E-02    0.146E-03
DAV:   6    -0.384097283520E+02    0.17402E-07   -0.20984E-07 13616   0.524E-03    0.740E-04
DAV:   7    -0.384097283506E+02    0.14766E-08   -0.35805E-08 10412   0.334E-03
 298 F= -.38409728E+02 E0= -.38401873E+02  d E =-.761693E-05
 curvature: -16.89 expect dE=-0.245E-03 dE for cont linesearch -0.156E-07
 trial: gam= 3.10634 g(F)=  0.136E-04 g(S)=  0.943E-06 ort = 0.171E-06 (trialstep = 0.776E-01)
 search vector abs. value=  0.321E-03
 bond charge predicted
       N       E                     dE             d eps       ncg     rms          rms(c)
DAV:   1    -0.384097285065E+02   -0.15448E-06   -0.36865E-04  9892   0.997E-02    0.412E-03
DAV:   2    -0.384097292722E+02   -0.76572E-06   -0.95827E-06 10696   0.224E-02    0.306E-03
DAV:   3    -0.384097291941E+02    0.78115E-07   -0.37001E-07 11800   0.554E-03    0.186E-03
DAV:   4    -0.384097291544E+02    0.39718E-07   -0.90951E-08 12168   0.365E-03    0.488E-04
DAV:   5    -0.384097291509E+02    0.35116E-08   -0.27505E-08  9176   0.200E-03
 299 F= -.38409729E+02 E0= -.38401870E+02  d E =-.800329E-06
 trial-energy change:   -0.000001  1 .order   -0.000001   -0.000001   -0.000000
 step:   0.1221(harm=  0.1221)  dis= 0.00013  next Energy=   -38.409729 (dE=-0.919E-06)
 bond charge predicted
       N       E                     dE             d eps       ncg     rms          rms(c)
DAV:   1    -0.384097290749E+02    0.79538E-07   -0.12147E-04  9900   0.573E-02    0.239E-03
DAV:   2    -0.384097293322E+02   -0.25738E-06   -0.32062E-06 10720   0.130E-02    0.177E-03
DAV:   3    -0.384097293010E+02    0.31237E-07   -0.12584E-07 11812   0.323E-03    0.108E-03
DAV:   4    -0.384097292842E+02    0.16780E-07   -0.28599E-08  9956   0.208E-03    0.285E-04
DAV:   5    -0.384097292819E+02    0.23742E-08   -0.98932E-09  5776   0.122E-03
 300 F= -.38409729E+02 E0= -.38401869E+02  d E =-.931291E-06
 curvature:  -1.30 expect dE=-0.108E-04 dE for cont linesearch -0.438E-09
 trial: gam= 0.57910 g(F)=  0.513E-05 g(S)=  0.320E-05 ort = 0.329E-06 (trialstep = 0.865E-01)
 search vector abs. value=  0.116E-03
 writing wavefunctions
Tue Jan  4 00:47:00 CST 2022
