Tue Jan  4 00:16:59 CST 2022
 running on   48 total cores
 distrk:  each k-point on   48 cores,    1 groups
 distr:  one band on   24 cores,    2 groups
 using from now: INCAR     
 vasp.5.3.5 31Mar14 (build Jan 11 2016 19:50:55) complex                        
  
 POSCAR found type information on POSCAR  Zn Ga N  O 
 POSCAR found :  4 types and       8 ions
 scaLAPACK will be used

 ----------------------------------------------------------------------------- 
|                                                                             |
|           W    W    AA    RRRRR   N    N  II  N    N   GGGG   !!!           |
|           W    W   A  A   R    R  NN   N  II  NN   N  G    G  !!!           |
|           W    W  A    A  R    R  N N  N  II  N N  N  G       !!!           |
|           W WW W  AAAAAA  RRRRR   N  N N  II  N  N N  G  GGG   !            |
|           WW  WW  A    A  R   R   N   NN  II  N   NN  G    G                |
|           W    W  A    A  R    R  N    N  II  N    N   GGGG   !!!           |
|                                                                             |
|      For optimal performance we recommend to set                            |
|        NCORE= 4 - approx SQRT( number of cores)                             |
|      NCORE specifies how many cores store one orbital (NPAR=cpu/NCORE).     |
|      This setting can  greatly improve the performance of VASP for DFT.     |
|      The default, NPAR=number of cores might be grossly inefficient         |
|      on modern multi-core architectures or massively parallel machines.     |
|      Do your own testing !!!!                                               |
|      Unfortunately you need to use the default for GW and RPA calculations. |
|      (for HF NCORE is supported but not extensively tested yet)             |
|                                                                             |
 ----------------------------------------------------------------------------- 

 LDA part: xc-table for Pade appr. of Perdew
 POSCAR, INCAR and KPOINTS ok, starting setup
 WARNING: small aliasing (wrap around) errors must be expected
 FFT: planning ...
 WAVECAR not read
 entering main loop
       N       E                     dE             d eps       ncg     rms          rms(c)
DAV:   1     0.920629021944E+03    0.92063E+03   -0.42229E+04 10264   0.342E+03
DAV:   2     0.148012984331E+03   -0.77262E+03   -0.74298E+03  9880   0.807E+02
DAV:   3    -0.287416968994E+02   -0.17675E+03   -0.17115E+03 11248   0.271E+02
DAV:   4    -0.441450915160E+02   -0.15403E+02   -0.15231E+02 11736   0.811E+01
DAV:   5    -0.446407918630E+02   -0.49570E+00   -0.49374E+00 12584   0.147E+01    0.155E+01
DAV:   6    -0.377490329810E+02    0.68918E+01   -0.22578E+01 19056   0.818E+01    0.750E+00
DAV:   7    -0.381974416436E+02   -0.44841E+00   -0.69704E+00 10628   0.194E+01    0.466E+00
DAV:   8    -0.381337354809E+02    0.63706E-01   -0.10732E+00 15168   0.805E+00    0.210E+00
DAV:   9    -0.380975178560E+02    0.36218E-01   -0.20105E-01 14248   0.702E+00    0.445E-01
DAV:  10    -0.380980102321E+02   -0.49238E-03   -0.35464E-02 12060   0.203E+00    0.255E-01
DAV:  11    -0.380982245831E+02   -0.21435E-03   -0.86662E-03 12496   0.801E-01    0.132E-01
DAV:  12    -0.380983279797E+02   -0.10340E-03   -0.12538E-03 13272   0.547E-01    0.617E-02
DAV:  13    -0.380983501553E+02   -0.22176E-04   -0.36875E-04 13580   0.276E-01    0.182E-02
DAV:  14    -0.380983589086E+02   -0.87534E-05   -0.76398E-05 11100   0.713E-02    0.101E-02
DAV:  15    -0.380983622728E+02   -0.33642E-05   -0.14185E-05 12880   0.424E-02    0.525E-03
DAV:  16    -0.380983634230E+02   -0.11502E-05   -0.41240E-06 11280   0.204E-02    0.230E-03
DAV:  17    -0.380983635427E+02   -0.11973E-06   -0.77070E-07 13292   0.108E-02    0.107E-03
DAV:  18    -0.380983634995E+02    0.43206E-07   -0.14046E-07 11332   0.621E-03    0.477E-04
DAV:  19    -0.380983634681E+02    0.31463E-07   -0.47287E-08 11688   0.229E-03    0.204E-04
DAV:  20    -0.380983634513E+02    0.16729E-07   -0.74722E-09  6196   0.860E-04    0.882E-05
DAV:  21    -0.380983634550E+02   -0.36925E-08   -0.18805E-09  5956   0.460E-04
   1 F= -.38098363E+02 E0= -.38098362E+02  d E =-.380984E+02
 curvature:   0.00 expect dE= 0.000E+00 dE for cont linesearch  0.000E+00
 trial: gam= 0.00000 g(F)=  0.728E-04 g(S)=  0.682E-04 ort = 0.000E+00 (trialstep = 0.100E+01)
 search vector abs. value=  0.141E-03
 bond charge predicted
       N       E                     dE             d eps       ncg     rms          rms(c)
DAV:   1    -0.380989964725E+02   -0.63302E-03   -0.25275E-02 13816   0.172E+00    0.195E-01
DAV:   2    -0.380984720997E+02    0.52437E-03   -0.37879E-03 12264   0.850E-01    0.755E-02
DAV:   3    -0.380984025052E+02    0.69595E-04   -0.34825E-04 14700   0.205E-01    0.359E-02
DAV:   4    -0.380983744677E+02    0.28037E-04   -0.44964E-05 15400   0.959E-02    0.102E-02
DAV:   5    -0.380983737623E+02    0.70548E-06   -0.18974E-05 11364   0.405E-02    0.356E-03
DAV:   6    -0.380983736708E+02    0.91516E-07   -0.20617E-06 13712   0.128E-02    0.191E-03
DAV:   7    -0.380983736090E+02    0.61791E-07   -0.20855E-07 12848   0.688E-03    0.115E-03
DAV:   8    -0.380983735500E+02    0.58971E-07   -0.87382E-08 13132   0.290E-03    0.441E-04
DAV:   9    -0.380983735290E+02    0.21009E-07   -0.25735E-08  8352   0.158E-03    0.243E-04
DAV:  10    -0.380983735190E+02    0.99653E-08   -0.47586E-09  5808   0.825E-04
   2 F= -.38098374E+02 E0= -.38098372E+02  d E =-.100640E-04
 trial-energy change:   -0.000010  1 .order   -0.000010   -0.000141    0.000122
 step:   0.5392(harm=  0.5364)  dis= 0.00043  next Energy=   -38.098402 (dE=-0.381E-04)
 bond charge predicted
       N       E                     dE             d eps       ncg     rms          rms(c)
DAV:   1    -0.380985353692E+02   -0.16184E-03   -0.53720E-03 13832   0.794E-01    0.899E-02
DAV:   2    -0.380984242768E+02    0.11109E-03   -0.80286E-04 12228   0.390E-01    0.348E-02
DAV:   3    -0.380984086114E+02    0.15665E-04   -0.74006E-05 14696   0.941E-02    0.166E-02
DAV:   4    -0.380984021057E+02    0.65057E-05   -0.95381E-06 15408   0.439E-02    0.469E-03
DAV:   5    -0.380984017615E+02    0.34414E-06   -0.40543E-06 11364   0.187E-02    0.166E-03
DAV:   6    -0.380984017245E+02    0.37013E-07   -0.43898E-07 13744   0.587E-03    0.886E-04
DAV:   7    -0.380984017305E+02   -0.60068E-08   -0.42846E-08  9624   0.313E-03
   3 F= -.38098402E+02 E0= -.38098400E+02  d E =-.382755E-04
 curvature:  -0.27 expect dE=-0.650E-05 dE for cont linesearch -0.916E-08
 trial: gam= 0.15636 g(F)=  0.135E-04 g(S)=  0.107E-04 ort = 0.219E-05 (trialstep = 0.908E+00)
 search vector abs. value=  0.284E-04
 bond charge predicted
       N       E                     dE             d eps       ncg     rms          rms(c)
DAV:   1    -0.380984553265E+02   -0.53602E-04   -0.33721E-03 10808   0.436E-01    0.528E-02
DAV:   2    -0.380984280552E+02    0.27271E-04   -0.29308E-04 11880   0.214E-01    0.264E-02
DAV:   3    -0.380984192150E+02    0.88402E-05   -0.26304E-05 14420   0.642E-02    0.118E-02
DAV:   4    -0.380984166808E+02    0.25342E-05   -0.53707E-06 13684   0.336E-02    0.275E-03
DAV:   5    -0.380984167971E+02   -0.11638E-06   -0.21084E-06 10804   0.133E-02    0.104E-03
DAV:   6    -0.380984168051E+02   -0.79699E-08   -0.17195E-07 11776   0.478E-03    0.686E-04
DAV:   7    -0.380984167969E+02    0.81750E-08   -0.21269E-08  7464   0.331E-03
   4 F= -.38098417E+02 E0= -.38098415E+02  d E =-.150664E-04
 trial-energy change:   -0.000015  1 .order   -0.000015   -0.000022   -0.000008
 step:   1.3756(harm=  1.3881)  dis= 0.00036  next Energy=   -38.098419 (dE=-0.171E-04)
 bond charge predicted
       N       E                     dE             d eps       ncg     rms          rms(c)
DAV:   1    -0.380984292404E+02   -0.12435E-04   -0.89578E-04 10788   0.225E-01    0.273E-02
DAV:   2    -0.380984219324E+02    0.73080E-05   -0.77844E-05 11880   0.110E-01    0.136E-02
DAV:   3    -0.380984196894E+02    0.22430E-05   -0.70447E-06 14412   0.332E-02    0.608E-03
DAV:   4    -0.380984190506E+02    0.63879E-06   -0.14371E-06 13652   0.174E-02    0.143E-03
DAV:   5    -0.380984190990E+02   -0.48396E-07   -0.56549E-07 10828   0.689E-03    0.540E-04
DAV:   6    -0.380984191011E+02   -0.20991E-08   -0.45676E-08  9840   0.248E-03
   5 F= -.38098419E+02 E0= -.38098417E+02  d E =-.173706E-04
 curvature:  -0.80 expect dE=-0.169E-04 dE for cont linesearch -0.977E-08
 trial: gam= 0.84049 g(F)=  0.130E-04 g(S)=  0.813E-05 ort = 0.588E-06 (trialstep = 0.673E+00)
 search vector abs. value=  0.422E-04
 bond charge predicted
       N       E                     dE             d eps       ncg     rms          rms(c)
DAV:   1    -0.380984410991E+02   -0.22000E-04   -0.31985E-03 10440   0.365E-01    0.347E-02
DAV:   2    -0.380984357404E+02    0.53587E-05   -0.16359E-04 11780   0.162E-01    0.191E-02
DAV:   3    -0.380984312626E+02    0.44778E-05   -0.16162E-05 13512   0.492E-02    0.859E-03
DAV:   4    -0.380984297748E+02    0.14878E-05   -0.30490E-06 13748   0.230E-02    0.149E-03
DAV:   5    -0.380984298223E+02   -0.47525E-07   -0.10660E-06 10680   0.872E-03    0.718E-04
DAV:   6    -0.380984298317E+02   -0.93478E-08   -0.79969E-08 11712   0.340E-03
   6 F= -.38098430E+02 E0= -.38098428E+02  d E =-.107306E-04
 trial-energy change:   -0.000011  1 .order   -0.000011   -0.000015   -0.000007
 step:   1.4906(harm=  1.3148)  dis= 0.00081  next Energy=   -38.098434 (dE=-0.148E-04)
 bond charge predicted
       N       E                     dE             d eps       ncg     rms          rms(c)
DAV:   1    -0.380984495806E+02   -0.19758E-04   -0.47123E-03 10448   0.443E-01    0.422E-02
DAV:   2    -0.380984416061E+02    0.79745E-05   -0.24075E-04 11780   0.196E-01    0.232E-02
DAV:   3    -0.380984351026E+02    0.65035E-05   -0.23895E-05 13520   0.599E-02    0.104E-02
DAV:   4    -0.380984329573E+02    0.21454E-05   -0.44891E-06 13684   0.280E-02    0.182E-03
DAV:   5    -0.380984330319E+02   -0.74593E-07   -0.15714E-06 10696   0.109E-02    0.886E-04
DAV:   6    -0.380984330459E+02   -0.14003E-07   -0.13050E-07 12200   0.458E-03    0.632E-04
DAV:   7    -0.380984330501E+02   -0.42578E-08   -0.15052E-08  6480   0.307E-03
   7 F= -.38098433E+02 E0= -.38098431E+02  d E =-.139490E-04
 curvature:  -1.18 expect dE=-0.767E-05 dE for cont linesearch -0.184E-06
 ZBRENT: interpolating
 opt :   1.3311  next Energy=   -38.098433 (dE=-0.142E-04)
 bond charge predicted
       N       E                     dE             d eps       ncg     rms          rms(c)
DAV:   1    -0.380984337640E+02   -0.71814E-06   -0.17922E-04 10444   0.864E-02    0.823E-03
DAV:   2    -0.380984334554E+02    0.30858E-06   -0.92504E-06 11744   0.384E-02    0.452E-03
DAV:   3    -0.380984333166E+02    0.13877E-06   -0.90666E-07 13528   0.117E-02    0.204E-03
DAV:   4    -0.380984332818E+02    0.34850E-07   -0.16790E-07 13488   0.544E-03    0.355E-04
DAV:   5    -0.380984332884E+02   -0.66148E-08   -0.59468E-08 10572   0.207E-03
   8 F= -.38098433E+02 E0= -.38098432E+02  d E =-.141873E-04
 curvature:  -1.31 expect dE=-0.625E-05 dE for cont linesearch -0.466E-08
 trial: gam= 0.24408 g(F)=  0.291E-05 g(S)=  0.185E-05 ort = 0.387E-06 (trialstep = 0.805E+00)
 search vector abs. value=  0.746E-05
 bond charge predicted
       N       E                     dE             d eps       ncg     rms          rms(c)
DAV:   1    -0.380984368968E+02   -0.36150E-05   -0.98771E-04 10400   0.188E-01    0.136E-02
DAV:   2    -0.380984368162E+02    0.80563E-07   -0.35139E-05 11684   0.653E-02    0.649E-03
DAV:   3    -0.380984364581E+02    0.35813E-06   -0.28045E-06 13344   0.188E-02    0.319E-03
DAV:   4    -0.380984362984E+02    0.15969E-06   -0.48985E-07 13956   0.102E-02    0.732E-04
DAV:   5    -0.380984363174E+02   -0.19023E-07   -0.18400E-07 10800   0.393E-03    0.319E-04
DAV:   6    -0.380984363146E+02    0.28353E-08   -0.13404E-08  6148   0.138E-03
   9 F= -.38098436E+02 E0= -.38098435E+02  d E =-.302618E-05
 trial-energy change:   -0.000003  1 .order   -0.000003   -0.000004   -0.000002
 step:   1.7814(harm=  1.7814)  dis= 0.00032  next Energy=   -38.098438 (dE=-0.432E-05)
 bond charge predicted
       N       E                     dE             d eps       ncg     rms          rms(c)
DAV:   1    -0.380984385899E+02   -0.22725E-05   -0.14545E-03 10400   0.229E-01    0.164E-02
DAV:   2    -0.380984384973E+02    0.92663E-07   -0.51664E-05 11692   0.792E-02    0.787E-03
DAV:   3    -0.380984379453E+02    0.55200E-06   -0.41190E-06 13308   0.230E-02    0.387E-03
DAV:   4    -0.380984377028E+02    0.24241E-06   -0.72447E-07 13932   0.125E-02    0.886E-04
DAV:   5    -0.380984377277E+02   -0.24882E-07   -0.26975E-07 10796   0.487E-03    0.387E-04
DAV:   6    -0.380984377245E+02    0.32082E-08   -0.21997E-08  6984   0.175E-03
  10 F= -.38098438E+02 E0= -.38098436E+02  d E =-.443611E-05
 curvature:  -1.37 expect dE=-0.681E-05 dE for cont linesearch -0.226E-08
 trial: gam= 1.02671 g(F)=  0.420E-05 g(S)=  0.769E-06 ort = 0.111E-06 (trialstep = 0.571E+00)
 search vector abs. value=  0.131E-04
 bond charge predicted
       N       E                     dE             d eps       ncg     rms          rms(c)
DAV:   1    -0.380984393288E+02   -0.16010E-05   -0.91341E-04  9900   0.165E-01    0.820E-03
DAV:   2    -0.380984404496E+02   -0.11208E-05   -0.20900E-05 12540   0.369E-02    0.478E-03
DAV:   3    -0.380984401540E+02    0.29559E-06   -0.97987E-07 12288   0.114E-02    0.210E-03
DAV:   4    -0.380984400882E+02    0.65807E-07   -0.28620E-07 12268   0.806E-03    0.530E-04
DAV:   5    -0.380984401030E+02   -0.14756E-07   -0.86513E-08 10708   0.341E-03    0.294E-04
DAV:   6    -0.380984401049E+02   -0.19536E-08   -0.90099E-09  6040   0.161E-03
  11 F= -.38098440E+02 E0= -.38098438E+02  d E =-.238038E-05
 trial-energy change:   -0.000002  1 .order   -0.000002   -0.000003   -0.000002
 step:   1.0045(harm=  1.3451)  dis= 0.00022  next Energy=   -38.098441 (dE=-0.305E-05)
 bond charge predicted
       N       E                     dE             d eps       ncg     rms          rms(c)
DAV:   1    -0.380984406481E+02   -0.54519E-06   -0.52644E-04  9900   0.125E-01    0.622E-03
DAV:   2    -0.380984413004E+02   -0.65229E-06   -0.12103E-05 12580   0.280E-02    0.364E-03
DAV:   3    -0.380984411377E+02    0.16273E-06   -0.55694E-07 12264   0.832E-03    0.160E-03
DAV:   4    -0.380984411021E+02    0.35564E-07   -0.16502E-07 12288   0.590E-03    0.399E-04
DAV:   5    -0.380984411133E+02   -0.11114E-07   -0.49161E-08 10536   0.252E-03    0.224E-04
DAV:   6    -0.380984411142E+02   -0.91768E-09   -0.50960E-09  5944   0.123E-03
  12 F= -.38098441E+02 E0= -.38098439E+02  d E =-.338965E-05
 curvature:  -1.39 expect dE=-0.347E-05 dE for cont linesearch -0.192E-06
 ZBRENT: increasing intervall
 opt :   1.8714  next Energy=   -38.098441 (dE=-0.318E-05)
 bond charge predicted
       N       E                     dE             d eps       ncg     rms          rms(c)
DAV:   1    -0.380984392826E+02    0.18307E-05   -0.21043E-03  9900   0.250E-01    0.124E-02
DAV:   2    -0.380984418813E+02   -0.25987E-05   -0.48261E-05 12556   0.558E-02    0.726E-03
DAV:   3    -0.380984411699E+02    0.71132E-06   -0.22297E-06 12328   0.160E-02    0.319E-03
DAV:   4    -0.380984410130E+02    0.15699E-06   -0.64515E-07 12324   0.114E-02    0.786E-04
DAV:   5    -0.380984410421E+02   -0.29183E-07   -0.19297E-07 10772   0.485E-03    0.444E-04
DAV:   6    -0.380984410449E+02   -0.27976E-08   -0.19492E-08  6748   0.237E-03
  13 F= -.38098441E+02 E0= -.38098439E+02  d E =-.332041E-05
 curvature:   1.51 expect dE= 0.130E-04 dE for cont linesearch  0.430E-06
 ZBRENT: bracketing found
 ZBRENT: interpolating
 opt :   1.3604  next Energy=   -38.098441 (dE=-0.363E-05)
 bond charge predicted
       N       E                     dE             d eps       ncg     rms          rms(c)
DAV:   1    -0.380984409088E+02    0.13338E-06   -0.72988E-04  9900   0.147E-01    0.731E-03
DAV:   2    -0.380984418000E+02   -0.89122E-06   -0.16638E-05 12476   0.328E-02    0.426E-03
DAV:   3    -0.380984414953E+02    0.30466E-06   -0.77682E-07 12344   0.847E-03    0.186E-03
DAV:   4    -0.380984414317E+02    0.63637E-07   -0.21026E-07 12424   0.604E-03    0.453E-04
DAV:   5    -0.380984414260E+02    0.57139E-08   -0.67568E-08 10680   0.258E-03
  14 F= -.38098441E+02 E0= -.38098440E+02  d E =-.370144E-05
 curvature:  -0.84 expect dE=-0.345E-05 dE for cont linesearch -0.108E-08
 trial: gam= 0.85825 g(F)=  0.344E-05 g(S)=  0.666E-06 ort = 0.130E-06 (trialstep = 0.683E+00)
 search vector abs. value=  0.139E-04
 bond charge predicted
       N       E                     dE             d eps       ncg     rms          rms(c)
DAV:   1    -0.380984440124E+02   -0.25807E-05   -0.13714E-03  9904   0.205E-01    0.135E-02
DAV:   2    -0.380984443945E+02   -0.38217E-06   -0.34330E-05 11840   0.589E-02    0.782E-03
DAV:   3    -0.380984435238E+02    0.87068E-06   -0.27013E-06 12416   0.202E-02    0.329E-03
DAV:   4    -0.380984433394E+02    0.18443E-06   -0.74205E-07 13540   0.115E-02    0.588E-04
DAV:   5    -0.380984433604E+02   -0.20950E-07   -0.22269E-07 10700   0.474E-03    0.436E-04
DAV:   6    -0.380984433552E+02    0.51923E-08   -0.13711E-08  6300   0.179E-03
  15 F= -.38098443E+02 E0= -.38098442E+02  d E =-.192921E-05
 trial-energy change:   -0.000002  1 .order   -0.000002   -0.000003   -0.000001
 step:   0.9447(harm=  0.9913)  dis= 0.00019  next Energy=   -38.098444 (dE=-0.210E-05)
 bond charge predicted
       N       E                     dE             d eps       ncg     rms          rms(c)
DAV:   1    -0.380984436825E+02   -0.32213E-06   -0.20243E-04  9904   0.788E-02    0.520E-03
DAV:   2    -0.380984437299E+02   -0.47398E-07   -0.50668E-06 11888   0.226E-02    0.300E-03
DAV:   3    -0.380984436171E+02    0.11276E-06   -0.39939E-07 12452   0.824E-03    0.126E-03
DAV:   4    -0.380984435919E+02    0.25189E-07   -0.10978E-07 12596   0.486E-03    0.237E-04
DAV:   5    -0.380984435955E+02   -0.35898E-08   -0.34157E-08  8904   0.204E-03
  16 F= -.38098444E+02 E0= -.38098442E+02  d E =-.216957E-05
 curvature:  -1.60 expect dE=-0.303E-05 dE for cont linesearch -0.122E-07
 trial: gam= 0.37611 g(F)=  0.175E-05 g(S)=  0.143E-06 ort = 0.326E-06 (trialstep = 0.735E+00)
 search vector abs. value=  0.411E-05
 bond charge predicted
       N       E                     dE             d eps       ncg     rms          rms(c)
DAV:   1    -0.380984444633E+02   -0.87136E-06   -0.45003E-04 10116   0.120E-01    0.696E-03
DAV:   2    -0.380984449629E+02   -0.49959E-06   -0.11537E-05 11904   0.299E-02    0.403E-03
DAV:   3    -0.380984446889E+02    0.27394E-06   -0.68323E-07 12332   0.931E-03    0.159E-03
DAV:   4    -0.380984446516E+02    0.37384E-07   -0.20065E-07 12228   0.557E-03    0.344E-04
DAV:   5    -0.380984446542E+02   -0.26394E-08   -0.55083E-08 10624   0.243E-03
  17 F= -.38098445E+02 E0= -.38098443E+02  d E =-.105867E-05
 trial-energy change:   -0.000001  1 .order   -0.000001   -0.000001   -0.000001
 step:   1.2722(harm=  1.2722)  dis= 0.00015  next Energy=   -38.098445 (dE=-0.128E-05)
 bond charge predicted
       N       E                     dE             d eps       ncg     rms          rms(c)
DAV:   1    -0.380984447902E+02   -0.13862E-06   -0.24024E-04 10120   0.875E-02    0.509E-03
DAV:   2    -0.380984450603E+02   -0.27009E-06   -0.61619E-06 11912   0.218E-02    0.294E-03
DAV:   3    -0.380984449136E+02    0.14668E-06   -0.36366E-07 12416   0.662E-03    0.116E-03
DAV:   4    -0.380984448942E+02    0.19383E-07   -0.10334E-07 11844   0.388E-03    0.247E-04
DAV:   5    -0.380984448957E+02   -0.14606E-08   -0.28135E-08  7540   0.173E-03
  18 F= -.38098445E+02 E0= -.38098443E+02  d E =-.130015E-05
 curvature:  -1.30 expect dE=-0.762E-06 dE for cont linesearch -0.528E-11
 trial: gam= 0.40808 g(F)=  0.513E-06 g(S)=  0.737E-07 ort =-0.409E-08 (trialstep = 0.843E+00)
 search vector abs. value=  0.127E-05
 bond charge predicted
       N       E                     dE             d eps       ncg     rms          rms(c)
DAV:   1    -0.380984452839E+02   -0.38970E-06   -0.18922E-04  9992   0.809E-02    0.566E-03
DAV:   2    -0.380984454327E+02   -0.14878E-06   -0.65716E-06 12264   0.271E-02    0.289E-03
DAV:   3    -0.380984453111E+02    0.12163E-06   -0.48026E-07 12944   0.757E-03    0.145E-03
DAV:   4    -0.380984452599E+02    0.51152E-07   -0.88195E-08 12144   0.385E-03    0.292E-04
DAV:   5    -0.380984452584E+02    0.14879E-08   -0.34662E-08  9128   0.166E-03
  19 F= -.38098445E+02 E0= -.38098444E+02  d E =-.362747E-06
 trial-energy change:   -0.000000  1 .order   -0.000000   -0.000000   -0.000000
 step:   1.4368(harm=  1.4368)  dis= 0.00010  next Energy=   -38.098445 (dE=-0.420E-06)
 bond charge predicted
       N       E                     dE             d eps       ncg     rms          rms(c)
DAV:   1    -0.380984453596E+02   -0.99727E-07   -0.94166E-05  9996   0.570E-02    0.400E-03
DAV:   2    -0.380984454384E+02   -0.78778E-07   -0.32648E-06 12280   0.191E-02    0.204E-03
DAV:   3    -0.380984453713E+02    0.67128E-07   -0.23927E-07 12964   0.534E-03    0.102E-03
DAV:   4    -0.380984453431E+02    0.28175E-07   -0.41257E-08  9964   0.273E-03    0.206E-04
DAV:   5    -0.380984453419E+02    0.12606E-08   -0.18017E-08  5948   0.120E-03
  20 F= -.38098445E+02 E0= -.38098444E+02  d E =-.446177E-06
 curvature:  -1.56 expect dE=-0.388E-06 dE for cont linesearch -0.145E-10
 trial: gam= 0.39260 g(F)=  0.129E-06 g(S)=  0.120E-06 ort = 0.344E-08 (trialstep = 0.961E+00)
 search vector abs. value=  0.447E-06
 bond charge predicted
       N       E                     dE             d eps       ncg     rms          rms(c)
DAV:   1    -0.380984454671E+02   -0.12395E-06   -0.90028E-05 10092   0.579E-02    0.417E-03
DAV:   2    -0.380984455072E+02   -0.40124E-07   -0.39602E-06 12256   0.219E-02    0.215E-03
DAV:   3    -0.380984455053E+02    0.18990E-08   -0.29879E-07 12668   0.623E-03    0.107E-03
DAV:   4    -0.380984455014E+02    0.39286E-08   -0.50483E-08 10796   0.307E-03
  21 F= -.38098446E+02 E0= -.38098444E+02  d E =-.159510E-06
 trial-energy change:   -0.000000  1 .order   -0.000000   -0.000000    0.000000
 step:   0.9548(harm=  0.9548)  dis= 0.00004  next Energy=   -38.098445 (dE=-0.120E-06)
 bond charge predicted
       N       E                     dE             d eps       ncg     rms          rms(c)
DAV:   1    -0.380984455077E+02   -0.23606E-08   -0.23536E-08  6780   0.138E-03    0.101E-04
DAV:   2    -0.380984455072E+02    0.42837E-09   -0.42943E-09  5784   0.948E-04
  22 F= -.38098446E+02 E0= -.38098444E+02  d E =-.165371E-06
 curvature:  -0.85 expect dE=-0.122E-06 dE for cont linesearch -0.412E-08
 trial: gam= 0.44380 g(F)=  0.125E-06 g(S)=  0.184E-07 ort = 0.465E-07 (trialstep = 0.960E+00)
 search vector abs. value=  0.273E-06
 bond charge predicted
       N       E                     dE             d eps       ncg     rms          rms(c)
DAV:   1    -0.380984455222E+02   -0.14500E-07   -0.52178E-05 10056   0.417E-02    0.250E-03
DAV:   2    -0.380984455932E+02   -0.71040E-07   -0.17225E-06 11832   0.123E-02    0.146E-03
DAV:   3    -0.380984456054E+02   -0.12180E-07   -0.11833E-07 11964   0.395E-03    0.720E-04
DAV:   4    -0.380984456100E+02   -0.46184E-08   -0.20161E-08  7368   0.232E-03
  23 F= -.38098446E+02 E0= -.38098444E+02  d E =-.102767E-06
 trial-energy change:   -0.000000  1 .order   -0.000000   -0.000000   -0.000000
 step:   0.9818(harm=  0.9818)  dis= 0.00004  next Energy=   -38.098446 (dE=-0.805E-07)
 bond charge predicted
       N       E                     dE             d eps       ncg     rms          rms(c)
DAV:   1    -0.380984456147E+02   -0.92905E-08   -0.34039E-08  8700   0.152E-03    0.104E-04
DAV:   2    -0.380984456155E+02   -0.80672E-09   -0.34799E-09  5456   0.819E-04
  24 F= -.38098446E+02 E0= -.38098444E+02  d E =-.108246E-06
 curvature:  -0.82 expect dE=-0.493E-07 dE for cont linesearch -0.162E-08
 trial: gam= 0.00000 g(F)=  0.457E-07 g(S)=  0.147E-07 ort =-0.233E-07 (trialstep = 0.964E+00)
 search vector abs. value=  0.605E-07
 reached required accuracy - stopping structural energy minimisation
 writing wavefunctions
Tue Jan  4 00:21:47 CST 2022
