Tue Jan  4 00:29:41 CST 2022
 running on   48 total cores
 distrk:  each k-point on   48 cores,    1 groups
 distr:  one band on   24 cores,    2 groups
 using from now: INCAR     
 vasp.5.3.5 31Mar14 (build Jan 11 2016 19:50:55) complex                        
  
 POSCAR found type information on POSCAR  Zn Ga N  O 
 POSCAR found :  4 types and       8 ions
 scaLAPACK will be used

 ----------------------------------------------------------------------------- 
|                                                                             |
|           W    W    AA    RRRRR   N    N  II  N    N   GGGG   !!!           |
|           W    W   A  A   R    R  NN   N  II  NN   N  G    G  !!!           |
|           W    W  A    A  R    R  N N  N  II  N N  N  G       !!!           |
|           W WW W  AAAAAA  RRRRR   N  N N  II  N  N N  G  GGG   !            |
|           WW  WW  A    A  R   R   N   NN  II  N   NN  G    G                |
|           W    W  A    A  R    R  N    N  II  N    N   GGGG   !!!           |
|                                                                             |
|      For optimal performance we recommend to set                            |
|        NCORE= 4 - approx SQRT( number of cores)                             |
|      NCORE specifies how many cores store one orbital (NPAR=cpu/NCORE).     |
|      This setting can  greatly improve the performance of VASP for DFT.     |
|      The default, NPAR=number of cores might be grossly inefficient         |
|      on modern multi-core architectures or massively parallel machines.     |
|      Do your own testing !!!!                                               |
|      Unfortunately you need to use the default for GW and RPA calculations. |
|      (for HF NCORE is supported but not extensively tested yet)             |
|                                                                             |
 ----------------------------------------------------------------------------- 

 LDA part: xc-table for Pade appr. of Perdew
 POSCAR, INCAR and KPOINTS ok, starting setup
 WARNING: small aliasing (wrap around) errors must be expected
 FFT: planning ...
 WAVECAR not read
 entering main loop
       N       E                     dE             d eps       ncg     rms          rms(c)
DAV:   1     0.906105313773E+03    0.90611E+03   -0.42265E+04 10292   0.339E+03
DAV:   2     0.143839914526E+03   -0.76227E+03   -0.73228E+03  9896   0.793E+02
DAV:   3    -0.291280315022E+02   -0.17297E+03   -0.16788E+03 11184   0.269E+02
DAV:   4    -0.443098448050E+02   -0.15182E+02   -0.15002E+02 12036   0.802E+01
DAV:   5    -0.447961657161E+02   -0.48632E+00   -0.48410E+00 12568   0.143E+01    0.154E+01
DAV:   6    -0.384729751181E+02    0.63232E+01   -0.19898E+01 18656   0.787E+01    0.763E+00
DAV:   7    -0.389080317379E+02   -0.43506E+00   -0.66569E+00 10692   0.187E+01    0.475E+00
DAV:   8    -0.388672234015E+02    0.40808E-01   -0.11958E+00 16076   0.869E+00    0.206E+00
DAV:   9    -0.388193908561E+02    0.47833E-01   -0.22065E-01 14780   0.637E+00    0.520E-01
DAV:  10    -0.388200378844E+02   -0.64703E-03   -0.49045E-02 11884   0.201E+00    0.214E-01
DAV:  11    -0.388206807674E+02   -0.64288E-03   -0.69275E-03 12612   0.921E-01    0.112E-01
DAV:  12    -0.388208372459E+02   -0.15648E-03   -0.88024E-04 12224   0.581E-01    0.482E-02
DAV:  13    -0.388208712646E+02   -0.34019E-04   -0.28602E-04 13328   0.173E-01    0.164E-02
DAV:  14    -0.388208859814E+02   -0.14717E-04   -0.67102E-05 12908   0.714E-02    0.115E-02
DAV:  15    -0.388208887838E+02   -0.28023E-05   -0.15526E-05 12996   0.567E-02    0.365E-03
DAV:  16    -0.388208901447E+02   -0.13609E-05   -0.55710E-06 11420   0.191E-02    0.251E-03
DAV:  17    -0.388208901947E+02   -0.49972E-07   -0.61874E-07 12796   0.859E-03    0.112E-03
DAV:  18    -0.388208901534E+02    0.41221E-07   -0.15806E-07 11464   0.655E-03    0.533E-04
DAV:  19    -0.388208901432E+02    0.10284E-07   -0.56795E-08 10804   0.269E-03    0.171E-04
DAV:  20    -0.388208901377E+02    0.54583E-08   -0.86603E-09  6316   0.863E-04
   1 F= -.38820890E+02 E0= -.38820886E+02  d E =-.388209E+02
 curvature:   0.00 expect dE= 0.000E+00 dE for cont linesearch  0.000E+00
 trial: gam= 0.00000 g(F)=  0.475E-04 g(S)=  0.110E-02 ort = 0.000E+00 (trialstep = 0.100E+01)
 search vector abs. value=  0.114E-02
 bond charge predicted
       N       E                     dE             d eps       ncg     rms          rms(c)
DAV:   1    -0.388287207570E+02   -0.78306E-02   -0.15226E-01 12796   0.478E+00    0.613E-01
DAV:   2    -0.388229231670E+02    0.57976E-02   -0.27664E-02 12176   0.253E+00    0.273E-01
DAV:   3    -0.388218121864E+02    0.11110E-02   -0.23682E-03 14720   0.628E-01    0.122E-01
DAV:   4    -0.388214879608E+02    0.32423E-03   -0.41722E-04 14928   0.311E-01    0.287E-02
DAV:   5    -0.388214836079E+02    0.43529E-05   -0.19382E-04 10772   0.129E-01    0.951E-03
DAV:   6    -0.388214840182E+02   -0.41030E-06   -0.17230E-05 12808   0.366E-02    0.589E-03
DAV:   7    -0.388214839433E+02    0.74863E-07   -0.16730E-06 13428   0.260E-02    0.348E-03
DAV:   8    -0.388214841340E+02   -0.19064E-06   -0.75427E-07 13424   0.823E-03    0.125E-03
DAV:   9    -0.388214841959E+02   -0.61936E-07   -0.24857E-07 12280   0.851E-03    0.684E-04
DAV:  10    -0.388214842244E+02   -0.28522E-07   -0.55128E-08 10576   0.348E-03    0.252E-04
DAV:  11    -0.388214842361E+02   -0.11693E-07   -0.11210E-08  6180   0.161E-03    0.173E-04
DAV:  12    -0.388214842449E+02   -0.87584E-08   -0.50472E-09  6020   0.105E-03
   2 F= -.38821484E+02 E0= -.38821479E+02  d E =-.594107E-03
 trial-energy change:   -0.000594  1 .order   -0.000591   -0.001143   -0.000040
 step:   1.0356(harm=  1.0362)  dis= 0.00063  next Energy=   -38.821485 (dE=-0.595E-03)
 bond charge predicted
       N       E                     dE             d eps       ncg     rms          rms(c)
DAV:   1    -0.388214943909E+02   -0.10155E-04   -0.19281E-04 12800   0.169E-01    0.219E-02
DAV:   2    -0.388214870245E+02    0.73664E-05   -0.35148E-05 12136   0.907E-02    0.969E-03
DAV:   3    -0.388214854456E+02    0.15790E-05   -0.30075E-06 14672   0.224E-02    0.432E-03
DAV:   4    -0.388214849411E+02    0.50453E-06   -0.52896E-07 14964   0.112E-02    0.103E-03
DAV:   5    -0.388214848954E+02    0.45646E-07   -0.24459E-07 10788   0.462E-03    0.333E-04
DAV:   6    -0.388214848956E+02   -0.15370E-09   -0.18889E-08  6276   0.135E-03
   3 F= -.38821485E+02 E0= -.38821480E+02  d E =-.594758E-03
 curvature:  -0.52 expect dE=-0.183E-03 dE for cont linesearch -0.501E-08
 trial: gam= 0.31187 g(F)=  0.136E-03 g(S)=  0.217E-03 ort =-0.333E-05 (trialstep = 0.101E+01)
 search vector abs. value=  0.462E-03
 bond charge predicted
       N       E                     dE             d eps       ncg     rms          rms(c)
DAV:   1    -0.388224881269E+02   -0.10032E-02   -0.55290E-02 10284   0.155E+00    0.218E-01
DAV:   2    -0.388220174891E+02    0.47064E-03   -0.31799E-03 11904   0.803E-01    0.125E-01
DAV:   3    -0.388217744327E+02    0.24306E-03   -0.42696E-04 13104   0.291E-01    0.488E-02
DAV:   4    -0.388217382124E+02    0.36220E-04   -0.14197E-04 12740   0.149E-01    0.833E-03
DAV:   5    -0.388217407068E+02   -0.24944E-05   -0.36171E-05 10992   0.628E-02    0.548E-03
DAV:   6    -0.388217407371E+02   -0.30321E-07   -0.38879E-06 12100   0.313E-02    0.347E-03
DAV:   7    -0.388217406638E+02    0.73349E-07   -0.78452E-07 11928   0.170E-02    0.136E-03
DAV:   8    -0.388217406592E+02    0.45857E-08   -0.26842E-07 12712   0.506E-03    0.537E-04
DAV:   9    -0.388217406547E+02    0.45193E-08   -0.35935E-08  8208   0.219E-03
   4 F= -.38821741E+02 E0= -.38821736E+02  d E =-.255759E-03
 trial-energy change:   -0.000256  1 .order   -0.000255   -0.000355   -0.000155
 step:   1.7620(harm=  1.7932)  dis= 0.00204  next Energy=   -38.821799 (dE=-0.314E-03)
 bond charge predicted
       N       E                     dE             d eps       ncg     rms          rms(c)
DAV:   1    -0.388222363987E+02   -0.49574E-03   -0.31073E-02 10292   0.117E+00    0.164E-01
DAV:   2    -0.388219713824E+02    0.26502E-03   -0.17912E-03 11904   0.603E-01    0.936E-02
DAV:   3    -0.388218351805E+02    0.13620E-03   -0.24008E-04 13072   0.218E-01    0.366E-02
DAV:   4    -0.388218148212E+02    0.20359E-04   -0.79690E-05 12740   0.112E-01    0.624E-03
DAV:   5    -0.388218162248E+02   -0.14037E-05   -0.20391E-05 11008   0.470E-02    0.410E-03
DAV:   6    -0.388218162341E+02   -0.92568E-08   -0.21728E-06 12108   0.234E-02    0.260E-03
DAV:   7    -0.388218161839E+02    0.50183E-07   -0.43739E-07 11952   0.128E-02    0.102E-03
DAV:   8    -0.388218161751E+02    0.87452E-08   -0.14952E-07 11856   0.377E-03    0.398E-04
DAV:   9    -0.388218161715E+02    0.35916E-08   -0.19777E-08  6920   0.165E-03
   5 F= -.38821816E+02 E0= -.38821811E+02  d E =-.331276E-03
 curvature:  -1.18 expect dE=-0.187E-03 dE for cont linesearch -0.104E-06
 trial: gam= 0.42752 g(F)=  0.135E-03 g(S)=  0.243E-04 ort = 0.639E-05 (trialstep = 0.116E+01)
 search vector abs. value=  0.249E-03
 bond charge predicted
       N       E                     dE             d eps       ncg     rms          rms(c)
DAV:   1    -0.388220057007E+02   -0.18953E-03   -0.54584E-02 10012   0.132E+00    0.111E-01
DAV:   2    -0.388220004278E+02    0.52729E-05   -0.17091E-03 13048   0.376E-01    0.673E-02
DAV:   3    -0.388219158113E+02    0.84617E-04   -0.12324E-04 13264   0.176E-01    0.170E-02
DAV:   4    -0.388219154232E+02    0.38808E-06   -0.48292E-05 10740   0.954E-02    0.543E-03
DAV:   5    -0.388219160947E+02   -0.67149E-06   -0.85746E-06 11880   0.332E-02    0.376E-03
DAV:   6    -0.388219160793E+02    0.15342E-07   -0.10026E-06 11652   0.203E-02    0.197E-03
DAV:   7    -0.388219161108E+02   -0.31478E-07   -0.28787E-07 12448   0.633E-03    0.555E-04
DAV:   8    -0.388219161211E+02   -0.10281E-07   -0.60726E-08 10560   0.240E-03    0.308E-04
DAV:   9    -0.388219161223E+02   -0.11692E-08   -0.83663E-09  6184   0.181E-03
   6 F= -.38821916E+02 E0= -.38821912E+02  d E =-.999507E-04
 trial-energy change:   -0.000100  1 .order   -0.000099   -0.000188   -0.000011
 step:   1.2310(harm=  1.2323)  dis= 0.00146  next Energy=   -38.821916 (dE=-0.100E-03)
 bond charge predicted
       N       E                     dE             d eps       ncg     rms          rms(c)
DAV:   1    -0.388219168473E+02   -0.72616E-06   -0.21604E-04 10136   0.829E-02    0.701E-03
DAV:   2    -0.388219168276E+02    0.19676E-07   -0.67361E-06 13048   0.236E-02    0.423E-03
DAV:   3    -0.388219164961E+02    0.33146E-06   -0.48511E-07 13272   0.111E-02    0.104E-03
DAV:   4    -0.388219165026E+02   -0.64938E-08   -0.18900E-07 10764   0.608E-03    0.339E-04
DAV:   5    -0.388219165084E+02   -0.57739E-08   -0.32684E-08  8916   0.208E-03
   7 F= -.38821917E+02 E0= -.38821912E+02  d E =-.100337E-03
 curvature:  -0.95 expect dE=-0.405E-04 dE for cont linesearch -0.262E-09
 trial: gam= 0.29298 g(F)=  0.395E-04 g(S)=  0.324E-05 ort =-0.262E-06 (trialstep = 0.117E+01)
 search vector abs. value=  0.640E-04
 bond charge predicted
       N       E                     dE             d eps       ncg     rms          rms(c)
DAV:   1    -0.388219496840E+02   -0.33181E-04   -0.15419E-02  9924   0.750E-01    0.567E-02
DAV:   2    -0.388219569009E+02   -0.72169E-05   -0.65205E-04 12264   0.290E-01    0.280E-02
DAV:   3    -0.388219480904E+02    0.88105E-05   -0.55740E-05 12160   0.924E-02    0.144E-02
DAV:   4    -0.388219445861E+02    0.35044E-05   -0.11366E-05 13460   0.470E-02    0.270E-03
DAV:   5    -0.388219447945E+02   -0.20842E-06   -0.33728E-06 10872   0.210E-02    0.151E-03
DAV:   6    -0.388219447874E+02    0.71395E-08   -0.42602E-07 12128   0.866E-03    0.113E-03
DAV:   7    -0.388219447609E+02    0.26458E-07   -0.70107E-08 10740   0.549E-03    0.473E-04
DAV:   8    -0.388219447429E+02    0.17973E-07   -0.23369E-08  7512   0.151E-03    0.144E-04
DAV:   9    -0.388219447400E+02    0.29449E-08   -0.55518E-09  6072   0.829E-04
   8 F= -.38821945E+02 E0= -.38821940E+02  d E =-.282316E-04
 trial-energy change:   -0.000028  1 .order   -0.000028   -0.000050   -0.000006
 step:   1.3433(harm=  1.3433)  dis= 0.00074  next Energy=   -38.821945 (dE=-0.287E-04)
 bond charge predicted
       N       E                     dE             d eps       ncg     rms          rms(c)
DAV:   1    -0.388219452158E+02   -0.47289E-06   -0.32645E-04  9956   0.109E-01    0.823E-03
DAV:   2    -0.388219453122E+02   -0.96332E-07   -0.13731E-05 12256   0.421E-02    0.406E-03
DAV:   3    -0.388219451664E+02    0.14571E-06   -0.11762E-06 12140   0.134E-02    0.210E-03
DAV:   4    -0.388219450959E+02    0.70553E-07   -0.23867E-07 13144   0.680E-03    0.390E-04
DAV:   5    -0.388219451001E+02   -0.42364E-08   -0.71759E-08 10680   0.303E-03
   9 F= -.38821945E+02 E0= -.38821941E+02  d E =-.285918E-04
 curvature:  -1.01 expect dE=-0.151E-04 dE for cont linesearch -0.217E-08
 trial: gam= 0.35462 g(F)=  0.128E-04 g(S)=  0.228E-05 ort =-0.371E-06 (trialstep = 0.121E+01)
 search vector abs. value=  0.228E-04
 bond charge predicted
       N       E                     dE             d eps       ncg     rms          rms(c)
DAV:   1    -0.388219530015E+02   -0.79056E-05   -0.65513E-03 10248   0.472E-01    0.274E-02
DAV:   2    -0.388219574059E+02   -0.44045E-05   -0.17961E-04 12280   0.137E-01    0.155E-02
DAV:   3    -0.388219544214E+02    0.29846E-05   -0.15541E-05 12860   0.472E-02    0.736E-03
DAV:   4    -0.388219534588E+02    0.96263E-06   -0.34319E-06 13048   0.220E-02    0.146E-03
DAV:   5    -0.388219535303E+02   -0.71544E-07   -0.10972E-06 10740   0.881E-03    0.922E-04
DAV:   6    -0.388219535444E+02   -0.14133E-07   -0.47950E-08 10908   0.246E-03    0.472E-04
DAV:   7    -0.388219535554E+02   -0.10962E-07   -0.13542E-08  6272   0.102E-03    0.176E-04
DAV:   8    -0.388219535622E+02   -0.68303E-08   -0.36869E-09  6156   0.599E-04
  10 F= -.38821954E+02 E0= -.38821949E+02  d E =-.846210E-05
 trial-energy change:   -0.000008  1 .order   -0.000008   -0.000018    0.000001
 step:   1.1260(harm=  1.1226)  dis= 0.00049  next Energy=   -38.821954 (dE=-0.851E-05)
 bond charge predicted
       N       E                     dE             d eps       ncg     rms          rms(c)
DAV:   1    -0.388219535845E+02   -0.29083E-07   -0.29346E-05 10256   0.315E-02    0.183E-03
DAV:   2    -0.388219535977E+02   -0.13248E-07   -0.80424E-07 12240   0.916E-03    0.105E-03
DAV:   3    -0.388219536016E+02   -0.39167E-08   -0.67512E-08 11184   0.325E-03
  11 F= -.38821954E+02 E0= -.38821949E+02  d E =-.850152E-05
 curvature:  -0.86 expect dE=-0.392E-05 dE for cont linesearch -0.196E-08
 trial: gam= 0.30951 g(F)=  0.304E-05 g(S)=  0.153E-05 ort =-0.228E-06 (trialstep = 0.119E+01)
 search vector abs. value=  0.662E-05
 bond charge predicted
       N       E                     dE             d eps       ncg     rms          rms(c)
DAV:   1    -0.388219542017E+02   -0.60396E-06   -0.19512E-03 10108   0.252E-01    0.118E-02
DAV:   2    -0.388219573603E+02   -0.31586E-05   -0.53339E-05 11948   0.573E-02    0.707E-03
DAV:   3    -0.388219566174E+02    0.74296E-06   -0.27143E-06 13108   0.185E-02    0.318E-03
DAV:   4    -0.388219565112E+02    0.10621E-06   -0.74397E-07 12096   0.144E-02    0.831E-04
DAV:   5    -0.388219565287E+02   -0.17532E-07   -0.25117E-07 10944   0.686E-03    0.458E-04
DAV:   6    -0.388219565279E+02    0.81945E-09   -0.33762E-08  8540   0.210E-03
  12 F= -.38821957E+02 E0= -.38821952E+02  d E =-.292623E-05
 trial-energy change:   -0.000003  1 .order   -0.000003   -0.000005   -0.000000
 step:   1.2286(harm=  1.2354)  dis= 0.00024  next Energy=   -38.821957 (dE=-0.293E-05)
 bond charge predicted
       N       E                     dE             d eps       ncg     rms          rms(c)
DAV:   1    -0.388219565330E+02   -0.43233E-08   -0.20428E-06 10372   0.833E-03    0.438E-04
DAV:   2    -0.388219565396E+02   -0.65629E-08   -0.67716E-08 11136   0.269E-03
  13 F= -.38821957E+02 E0= -.38821952E+02  d E =-.293793E-05
 curvature:  -0.89 expect dE=-0.811E-06 dE for cont linesearch -0.161E-08
 trial: gam= 0.13550 g(F)=  0.830E-06 g(S)=  0.845E-07 ort = 0.109E-06 (trialstep = 0.120E+01)
 search vector abs. value=  0.107E-05
 bond charge predicted
       N       E                     dE             d eps       ncg     rms          rms(c)
DAV:   1    -0.388219569966E+02   -0.46360E-06   -0.29916E-04  9944   0.103E-01    0.625E-03
DAV:   2    -0.388219574904E+02   -0.49381E-06   -0.11448E-05 12008   0.337E-02    0.330E-03
DAV:   3    -0.388219573443E+02    0.14617E-06   -0.80267E-07 12684   0.974E-03    0.175E-03
DAV:   4    -0.388219572838E+02    0.60504E-07   -0.15824E-07 12988   0.655E-03    0.327E-04
DAV:   5    -0.388219572831E+02    0.66711E-09   -0.59973E-08 10704   0.306E-03
  14 F= -.38821957E+02 E0= -.38821953E+02  d E =-.743503E-06
 trial-energy change:   -0.000001  1 .order   -0.000001   -0.000001   -0.000000
 step:   1.4399(harm=  1.5583)  dis= 0.00010  next Energy=   -38.821957 (dE=-0.770E-06)
 bond charge predicted
       N       E                     dE             d eps       ncg     rms          rms(c)
DAV:   1    -0.388219573236E+02   -0.39842E-07   -0.12204E-05 10028   0.207E-02    0.130E-03
DAV:   2    -0.388219573512E+02   -0.27571E-07   -0.48355E-07 12048   0.678E-03    0.692E-04
DAV:   3    -0.388219573388E+02    0.12331E-07   -0.32745E-08  9424   0.199E-03    0.364E-04
DAV:   4    -0.388219573354E+02    0.34429E-08   -0.68438E-09  6068   0.125E-03
  15 F= -.38821957E+02 E0= -.38821953E+02  d E =-.795810E-06
 curvature:  -0.80 expect dE=-0.198E-06 dE for cont linesearch -0.723E-08
 trial: gam= 0.19470 g(F)=  0.150E-06 g(S)=  0.990E-07 ort = 0.983E-07 (trialstep = 0.125E+01)
 search vector abs. value=  0.328E-06
 bond charge predicted
       N       E                     dE             d eps       ncg     rms          rms(c)
DAV:   1    -0.388219581315E+02   -0.79265E-06   -0.95388E-05 12656   0.782E-02    0.782E-03
DAV:   2    -0.388219575258E+02    0.60570E-06   -0.85369E-06 12344   0.385E-02    0.328E-03
DAV:   3    -0.388219574881E+02    0.37672E-07   -0.64509E-07 12908   0.101E-02    0.155E-03
DAV:   4    -0.388219574824E+02    0.56893E-08   -0.10527E-07 12448   0.504E-03    0.455E-04
DAV:   5    -0.388219574997E+02   -0.17249E-07   -0.34465E-08  9208   0.216E-03    0.119E-04
DAV:   6    -0.388219575017E+02   -0.19918E-08   -0.59589E-09  5964   0.957E-04
  16 F= -.38821958E+02 E0= -.38821953E+02  d E =-.166267E-06
 trial-energy change:   -0.000000  1 .order   -0.000000   -0.000000    0.000000
 step:   1.1480(harm=  1.1480)  dis= 0.00006  next Energy=   -38.821957 (dE=-0.154E-06)
 bond charge predicted
       N       E                     dE             d eps       ncg     rms          rms(c)
DAV:   1    -0.388219575130E+02   -0.13363E-07   -0.59585E-07 12692   0.624E-03    0.605E-04
DAV:   2    -0.388219575094E+02    0.35916E-08   -0.51483E-08  8504   0.299E-03
  17 F= -.38821958E+02 E0= -.38821953E+02  d E =-.174046E-06
 curvature:  -0.70 expect dE=-0.113E-06 dE for cont linesearch -0.268E-08
 trial: gam= 0.58453 g(F)=  0.101E-06 g(S)=  0.606E-07 ort = 0.354E-07 (trialstep = 0.123E+01)
 search vector abs. value=  0.315E-06
 bond charge predicted
       N       E                     dE             d eps       ncg     rms          rms(c)
DAV:   1    -0.388219576835E+02   -0.17042E-06   -0.97330E-05 10148   0.603E-02    0.371E-03
DAV:   2    -0.388219577437E+02   -0.60273E-07   -0.33469E-06 11488   0.209E-02    0.173E-03
DAV:   3    -0.388219576886E+02    0.55140E-07   -0.25684E-07 13032   0.590E-03    0.849E-04
DAV:   4    -0.388219576610E+02    0.27612E-07   -0.35763E-08  9468   0.288E-03    0.269E-04
DAV:   5    -0.388219576549E+02    0.60381E-08   -0.15886E-08  6564   0.115E-03
  18 F= -.38821958E+02 E0= -.38821953E+02  d E =-.145498E-06
 trial-energy change:   -0.000000  1 .order   -0.000000   -0.000000   -0.000000
 step:   1.6955(harm=  1.6955)  dis= 0.00008  next Energy=   -38.821958 (dE=-0.154E-06)
 bond charge predicted
       N       E                     dE             d eps       ncg     rms          rms(c)
DAV:   1    -0.388219576918E+02   -0.30820E-07   -0.14264E-05 10180   0.230E-02    0.141E-03
DAV:   2    -0.388219577055E+02   -0.13680E-07   -0.48182E-07 11664   0.792E-03    0.648E-04
DAV:   3    -0.388219576896E+02    0.15837E-07   -0.34159E-08  9668   0.219E-03    0.317E-04
DAV:   4    -0.388219576840E+02    0.56580E-08   -0.59985E-09  5920   0.111E-03
  19 F= -.38821958E+02 E0= -.38821953E+02  d E =-.174542E-06
 curvature:  -1.47 expect dE=-0.186E-06 dE for cont linesearch -0.125E-08
 trial: gam= 0.91759 g(F)=  0.797E-07 g(S)=  0.470E-07 ort =-0.164E-07 (trialstep = 0.115E+01)
 search vector abs. value=  0.361E-06
 bond charge predicted
       N       E                     dE             d eps       ncg     rms          rms(c)
DAV:   1    -0.388219576930E+02   -0.33538E-08   -0.96002E-05  9948   0.563E-02    0.325E-03
DAV:   2    -0.388219577491E+02   -0.56116E-07   -0.25798E-06 12144   0.184E-02    0.162E-03
DAV:   3    -0.388219577535E+02   -0.44001E-08   -0.21537E-07 12072   0.615E-03    0.872E-04
DAV:   4    -0.388219577551E+02   -0.16335E-08   -0.37817E-08  9912   0.346E-03
  20 F= -.38821958E+02 E0= -.38821953E+02  d E =-.711616E-07
 trial-energy change:   -0.000000  1 .order   -0.000000   -0.000000    0.000000
 step:   0.9824(harm=  0.9824)  dis= 0.00005  next Energy=   -38.821958 (dE=-0.548E-07)
 bond charge predicted
       N       E                     dE             d eps       ncg     rms          rms(c)
DAV:   1    -0.388219577580E+02   -0.44447E-08   -0.20210E-06 10040   0.822E-03    0.449E-04
DAV:   2    -0.388219577608E+02   -0.28808E-08   -0.55200E-08 10800   0.251E-03
  21 F= -.38821958E+02 E0= -.38821953E+02  d E =-.768537E-07
 curvature:  -1.59 expect dE=-0.853E-07 dE for cont linesearch -0.501E-08
 trial: gam= 0.16428 g(F)=  0.394E-07 g(S)=  0.142E-07 ort = 0.337E-07 (trialstep = 0.112E+01)
 search vector abs. value=  0.746E-07
 reached required accuracy - stopping structural energy minimisation
 writing wavefunctions
Tue Jan  4 00:34:11 CST 2022
