Tue Jan  4 01:42:46 CST 2022
 running on   48 total cores
 distrk:  each k-point on   48 cores,    1 groups
 distr:  one band on   24 cores,    2 groups
 using from now: INCAR     
 vasp.5.3.5 31Mar14 (build Jan 11 2016 19:50:55) complex                        
  
 POSCAR found type information on POSCAR  Zn Ga N  O 
 POSCAR found :  4 types and       8 ions
 scaLAPACK will be used

 ----------------------------------------------------------------------------- 
|                                                                             |
|           W    W    AA    RRRRR   N    N  II  N    N   GGGG   !!!           |
|           W    W   A  A   R    R  NN   N  II  NN   N  G    G  !!!           |
|           W    W  A    A  R    R  N N  N  II  N N  N  G       !!!           |
|           W WW W  AAAAAA  RRRRR   N  N N  II  N  N N  G  GGG   !            |
|           WW  WW  A    A  R   R   N   NN  II  N   NN  G    G                |
|           W    W  A    A  R    R  N    N  II  N    N   GGGG   !!!           |
|                                                                             |
|      For optimal performance we recommend to set                            |
|        NCORE= 4 - approx SQRT( number of cores)                             |
|      NCORE specifies how many cores store one orbital (NPAR=cpu/NCORE).     |
|      This setting can  greatly improve the performance of VASP for DFT.     |
|      The default, NPAR=number of cores might be grossly inefficient         |
|      on modern multi-core architectures or massively parallel machines.     |
|      Do your own testing !!!!                                               |
|      Unfortunately you need to use the default for GW and RPA calculations. |
|      (for HF NCORE is supported but not extensively tested yet)             |
|                                                                             |
 ----------------------------------------------------------------------------- 

 LDA part: xc-table for Pade appr. of Perdew
 POSCAR, INCAR and KPOINTS ok, starting setup
 WARNING: small aliasing (wrap around) errors must be expected
 FFT: planning ...
 WAVECAR not read
 entering main loop
       N       E                     dE             d eps       ncg     rms          rms(c)
DAV:   1     0.909926408732E+03    0.90993E+03   -0.42197E+04 10304   0.343E+03
DAV:   2     0.139857126774E+03   -0.77007E+03   -0.73853E+03  9896   0.800E+02
DAV:   3    -0.335086162896E+02   -0.17337E+03   -0.16880E+03 10980   0.271E+02
DAV:   4    -0.484154709704E+02   -0.14907E+02   -0.14724E+02 12348   0.810E+01
DAV:   5    -0.488807349301E+02   -0.46526E+00   -0.46324E+00 12380   0.143E+01    0.179E+01
DAV:   6    -0.408216254659E+02    0.80591E+01   -0.23989E+01 18752   0.799E+01    0.870E+00
DAV:   7    -0.414474848471E+02   -0.62586E+00   -0.80173E+00 10628   0.207E+01    0.567E+00
DAV:   8    -0.413836626075E+02    0.63822E-01   -0.13245E+00 15912   0.111E+01    0.243E+00
DAV:   9    -0.413324479572E+02    0.51215E-01   -0.20709E-01 14908   0.578E+00    0.947E-01
DAV:  10    -0.413238480694E+02    0.85999E-02   -0.79054E-02 14016   0.233E+00    0.376E-01
DAV:  11    -0.413246629176E+02   -0.81485E-03   -0.13592E-02 12456   0.124E+00    0.111E-01
DAV:  12    -0.413248769448E+02   -0.21403E-03   -0.22196E-03 14556   0.707E-01    0.646E-02
DAV:  13    -0.413249430191E+02   -0.66074E-04   -0.53384E-04 11640   0.205E-01    0.556E-02
DAV:  14    -0.413249497461E+02   -0.67270E-05   -0.90576E-05 12104   0.849E-02    0.306E-02
DAV:  15    -0.413249572671E+02   -0.75210E-05   -0.44099E-05 14972   0.795E-02    0.122E-02
DAV:  16    -0.413249586916E+02   -0.14245E-05   -0.17358E-05 11148   0.586E-02    0.585E-03
DAV:  17    -0.413249587091E+02   -0.17467E-07   -0.25564E-06 13148   0.158E-02    0.232E-03
DAV:  18    -0.413249588197E+02   -0.11060E-06   -0.66825E-07 11884   0.827E-03    0.177E-03
DAV:  19    -0.413249587599E+02    0.59711E-07   -0.99670E-08 13376   0.459E-03    0.108E-03
DAV:  20    -0.413249587024E+02    0.57568E-07   -0.45390E-08 11140   0.192E-03    0.495E-04
DAV:  21    -0.413249586835E+02    0.18887E-07   -0.44645E-09  6100   0.804E-04    0.209E-04
DAV:  22    -0.413249586806E+02    0.28540E-08   -0.31895E-09  5820   0.704E-04
   1 F= -.41324959E+02 E0= -.41322685E+02  d E =-.413250E+02
 curvature:   0.00 expect dE= 0.000E+00 dE for cont linesearch  0.000E+00
 trial: gam= 0.00000 g(F)=  0.325E-03 g(S)=  0.287E-01 ort = 0.000E+00 (trialstep = 0.100E+01)
 search vector abs. value=  0.290E-01
 bond charge predicted
       N       E                     dE             d eps       ncg     rms          rms(c)
DAV:   1    -0.415080930134E+02   -0.18313E+00   -0.37119E+00 13072   0.256E+01    0.297E+00
DAV:   2    -0.413763178886E+02    0.13178E+00   -0.66389E-01 12548   0.134E+01    0.135E+00
DAV:   3    -0.413450318387E+02    0.31286E-01   -0.52830E-02 14976   0.334E+00    0.612E-01
DAV:   4    -0.413363135863E+02    0.87183E-02   -0.13717E-02 14912   0.141E+00    0.980E-02
DAV:   5    -0.413366346263E+02   -0.32104E-03   -0.61264E-03 10496   0.702E-01    0.807E-02
DAV:   6    -0.413366273524E+02    0.72739E-05   -0.32627E-04 13308   0.202E-01    0.483E-02
DAV:   7    -0.413366285175E+02   -0.11651E-05   -0.96165E-05 13504   0.148E-01    0.308E-02
DAV:   8    -0.413366266799E+02    0.18376E-05   -0.34038E-05 12724   0.805E-02    0.921E-03
DAV:   9    -0.413366259349E+02    0.74501E-06   -0.10865E-05 13236   0.289E-02    0.375E-03
DAV:  10    -0.413366260468E+02   -0.11194E-06   -0.33651E-06 11636   0.169E-02    0.339E-03
DAV:  11    -0.413366261692E+02   -0.12240E-06   -0.43141E-07 13096   0.107E-02    0.123E-03
DAV:  12    -0.413366262983E+02   -0.12909E-06   -0.10600E-07 12436   0.420E-03    0.325E-04
DAV:  13    -0.413366263001E+02   -0.18144E-08   -0.30041E-08  8260   0.235E-03
   2 F= -.41336626E+02 E0= -.41333909E+02  d E =-.116676E-01
 trial-energy change:   -0.011668  1 .order   -0.011978   -0.028979    0.005023
 step:   0.8451(harm=  0.8523)  dis= 0.00167  next Energy=   -41.337016 (dE=-0.121E-01)
 bond charge predicted
       N       E                     dE             d eps       ncg     rms          rms(c)
DAV:   1    -0.413410981023E+02   -0.44718E-02   -0.87500E-02 13088   0.387E+00    0.460E-01
DAV:   2    -0.413379436407E+02    0.31545E-02   -0.15966E-02 12276   0.214E+00    0.207E-01
DAV:   3    -0.413372114766E+02    0.73216E-03   -0.12380E-03 15168   0.533E-01    0.938E-02
DAV:   4    -0.413370089851E+02    0.20249E-03   -0.32752E-04 14432   0.222E-01    0.152E-02
DAV:   5    -0.413370165032E+02   -0.75181E-05   -0.14340E-04 10532   0.109E-01    0.119E-02
DAV:   6    -0.413370163267E+02    0.17650E-06   -0.85201E-06 12660   0.287E-02    0.824E-03
DAV:   7    -0.413370160089E+02    0.31776E-06   -0.12703E-06 13388   0.276E-02    0.495E-03
DAV:   8    -0.413370157134E+02    0.29553E-06   -0.78814E-07 14300   0.900E-03    0.159E-03
DAV:   9    -0.413370156900E+02    0.23430E-07   -0.33704E-07 14764   0.122E-02    0.653E-04
DAV:  10    -0.413370156935E+02   -0.35257E-08   -0.10501E-07 10504   0.229E-03    0.542E-04
DAV:  11    -0.413370156693E+02    0.24216E-07   -0.98506E-09  6080   0.951E-04    0.297E-04
DAV:  12    -0.413370156529E+02    0.16401E-07   -0.59646E-09  5636   0.148E-03    0.871E-05
DAV:  13    -0.413370156510E+02    0.18758E-08   -0.29957E-09  5432   0.473E-04
   3 F= -.41337016E+02 E0= -.41334371E+02  d E =-.120570E-01
 curvature:  -0.43 expect dE=-0.417E-02 dE for cont linesearch -0.347E-08
 trial: gam= 0.33792 g(F)=  0.784E-02 g(S)=  0.197E-02 ort = 0.154E-04 (trialstep = 0.969E+00)
 search vector abs. value=  0.131E-01
 bond charge predicted
       N       E                     dE             d eps       ncg     rms          rms(c)
DAV:   1    -0.413510652478E+02   -0.14050E-01   -0.19562E+00 10028   0.798E+00    0.773E-01
DAV:   2    -0.413475214597E+02    0.35438E-02   -0.68384E-02 12308   0.248E+00    0.454E-01
DAV:   3    -0.413430056837E+02    0.45158E-02   -0.74550E-03 13300   0.894E-01    0.114E-01
DAV:   4    -0.413429449642E+02    0.60720E-04   -0.22120E-03 10812   0.393E-01    0.357E-02
DAV:   5    -0.413429627639E+02   -0.17800E-04   -0.32255E-04 12176   0.233E-01    0.261E-02
DAV:   6    -0.413429619516E+02    0.81233E-06   -0.41810E-05 11900   0.135E-01    0.147E-02
DAV:   7    -0.413429627462E+02   -0.79455E-06   -0.14902E-05 12360   0.418E-02    0.448E-03
DAV:   8    -0.413429628562E+02   -0.11003E-06   -0.39309E-06 12764   0.263E-02    0.313E-03
DAV:   9    -0.413429628949E+02   -0.38692E-07   -0.63809E-07 12656   0.930E-03    0.149E-03
DAV:  10    -0.413429628652E+02    0.29699E-07   -0.12799E-07 12464   0.320E-03    0.531E-04
DAV:  11    -0.413429628516E+02    0.13557E-07   -0.30322E-08  9256   0.195E-03    0.192E-04
DAV:  12    -0.413429628518E+02   -0.22055E-09   -0.61846E-09  6024   0.771E-04
   4 F= -.41342963E+02 E0= -.41340560E+02  d E =-.594720E-02
 trial-energy change:   -0.005947  1 .order   -0.005906   -0.009509   -0.002302
 step:   1.2651(harm=  1.2785)  dis= 0.00952  next Energy=   -41.343316 (dE=-0.630E-02)
 bond charge predicted
       N       E                     dE             d eps       ncg     rms          rms(c)
DAV:   1    -0.413440596778E+02   -0.10968E-02   -0.18193E-01 10052   0.244E+00    0.237E-01
DAV:   2    -0.413437388430E+02    0.32083E-03   -0.64920E-03 12496   0.771E-01    0.138E-01
DAV:   3    -0.413433249035E+02    0.41394E-03   -0.71282E-04 12840   0.289E-01    0.366E-02
DAV:   4    -0.413433175320E+02    0.73715E-05   -0.21654E-04 11228   0.139E-01    0.108E-02
DAV:   5    -0.413433196932E+02   -0.21612E-05   -0.35936E-05 12240   0.823E-02    0.804E-03
DAV:   6    -0.413433196588E+02    0.34361E-07   -0.49975E-06 11876   0.451E-02    0.455E-03
DAV:   7    -0.413433197258E+02   -0.66989E-07   -0.16677E-06 12740   0.144E-02    0.140E-03
DAV:   8    -0.413433197311E+02   -0.52946E-08   -0.42184E-07 12832   0.930E-03    0.993E-04
DAV:   9    -0.413433197247E+02    0.63765E-08   -0.67260E-08 10736   0.359E-03
   5 F= -.41343320E+02 E0= -.41340986E+02  d E =-.630407E-02
 curvature:  -0.85 expect dE=-0.155E-02 dE for cont linesearch -0.274E-07
 trial: gam= 0.18346 g(F)=  0.136E-02 g(S)=  0.451E-03 ort = 0.205E-04 (trialstep = 0.103E+01)
 search vector abs. value=  0.226E-02
 bond charge predicted
       N       E                     dE             d eps       ncg     rms          rms(c)
DAV:   1    -0.413483497605E+02   -0.50300E-02   -0.39723E-01 11052   0.473E+00    0.510E-01
DAV:   2    -0.413456040429E+02    0.27457E-02   -0.28554E-02 11712   0.245E+00    0.253E-01
DAV:   3    -0.413446801309E+02    0.92391E-03   -0.24943E-03 13572   0.690E-01    0.118E-01
DAV:   4    -0.413444004825E+02    0.27965E-03   -0.72776E-04 14376   0.345E-01    0.250E-02
DAV:   5    -0.413444109356E+02   -0.10453E-04   -0.21344E-04 10664   0.137E-01    0.116E-02
DAV:   6    -0.413444113272E+02   -0.39160E-06   -0.21558E-05 12300   0.718E-02    0.854E-03
DAV:   7    -0.413444109771E+02    0.35010E-06   -0.42692E-06 11916   0.414E-02    0.412E-03
DAV:   8    -0.413444108829E+02    0.94167E-07   -0.13733E-06 15656   0.126E-02    0.152E-03
DAV:   9    -0.413444108659E+02    0.16974E-07   -0.33725E-07 11476   0.689E-03    0.804E-04
DAV:  10    -0.413444108350E+02    0.30911E-07   -0.74194E-08 12384   0.309E-03    0.440E-04
DAV:  11    -0.413444108252E+02    0.98639E-08   -0.24563E-08  7740   0.164E-03
   6 F= -.41344411E+02 E0= -.41341993E+02  d E =-.109110E-02
 trial-energy change:   -0.001091  1 .order   -0.001091   -0.001869   -0.000313
 step:   1.2351(harm=  1.2351)  dis= 0.00560  next Energy=   -41.344442 (dE=-0.112E-02)
 bond charge predicted
       N       E                     dE             d eps       ncg     rms          rms(c)
DAV:   1    -0.413446056834E+02   -0.19485E-03   -0.16084E-02 10848   0.957E-01    0.103E-01
DAV:   2    -0.413444954181E+02    0.11027E-03   -0.11715E-03 11600   0.497E-01    0.510E-02
DAV:   3    -0.413444589723E+02    0.36446E-04   -0.10245E-04 14096   0.138E-01    0.238E-02
DAV:   4    -0.413444480440E+02    0.10928E-04   -0.28524E-05 14368   0.693E-02    0.500E-03
DAV:   5    -0.413444485539E+02   -0.50999E-06   -0.86717E-06 10672   0.273E-02    0.238E-03
DAV:   6    -0.413444485457E+02    0.82832E-08   -0.85980E-07 12364   0.144E-02    0.174E-03
DAV:   7    -0.413444485077E+02    0.37951E-07   -0.17327E-07 11944   0.832E-03    0.855E-04
DAV:   8    -0.413444484796E+02    0.28088E-07   -0.51304E-08 10820   0.253E-03    0.306E-04
DAV:   9    -0.413444484735E+02    0.61286E-08   -0.15488E-08  6064   0.153E-03
   7 F= -.41344448E+02 E0= -.41342013E+02  d E =-.112875E-02
 curvature:  -0.77 expect dE=-0.531E-03 dE for cont linesearch -0.201E-08
 trial: gam= 0.38342 g(F)=  0.469E-03 g(S)=  0.221E-03 ort =-0.243E-05 (trialstep = 0.107E+01)
 search vector abs. value=  0.102E-02
 bond charge predicted
       N       E                     dE             d eps       ncg     rms          rms(c)
DAV:   1    -0.413446954920E+02   -0.24701E-03   -0.24701E-01  9872   0.300E+00    0.174E-01
DAV:   2    -0.413448995070E+02   -0.20402E-03   -0.83963E-03 11848   0.105E+00    0.948E-02
DAV:   3    -0.413448707421E+02    0.28765E-04   -0.62818E-04 13232   0.278E-01    0.481E-02
DAV:   4    -0.413448434700E+02    0.27272E-04   -0.12425E-04 13420   0.133E-01    0.162E-02
DAV:   5    -0.413448429681E+02    0.50188E-06   -0.33066E-05 10996   0.460E-02    0.742E-03
DAV:   6    -0.413448428611E+02    0.10704E-06   -0.33027E-06 14572   0.228E-02    0.393E-03
DAV:   7    -0.413448428649E+02   -0.38162E-08   -0.57418E-07 12128   0.127E-02    0.235E-03
DAV:   8    -0.413448429480E+02   -0.83154E-07   -0.24676E-07 14056   0.593E-03    0.570E-04
DAV:   9    -0.413448429573E+02   -0.92946E-08   -0.59451E-08 11436   0.347E-03
   8 F= -.41344843E+02 E0= -.41342321E+02  d E =-.394484E-03
 trial-energy change:   -0.000394  1 .order   -0.000395   -0.000737   -0.000052
 step:   1.1510(harm=  1.1510)  dis= 0.00372  next Energy=   -41.344845 (dE=-0.397E-03)
 bond charge predicted
       N       E                     dE             d eps       ncg     rms          rms(c)
DAV:   1    -0.413448442997E+02   -0.13517E-05   -0.14285E-03  9876   0.227E-01    0.133E-02
DAV:   2    -0.413448454702E+02   -0.11705E-05   -0.48225E-05 11844   0.792E-02    0.716E-03
DAV:   3    -0.413448451653E+02    0.30486E-06   -0.35781E-06 13252   0.211E-02    0.364E-03
DAV:   4    -0.413448449036E+02    0.26178E-06   -0.71757E-07 13432   0.102E-02    0.121E-03
DAV:   5    -0.413448448747E+02    0.28828E-07   -0.19636E-07 10992   0.356E-03    0.555E-04
DAV:   6    -0.413448448779E+02   -0.31337E-08   -0.12221E-08  6896   0.168E-03
   9 F= -.41344845E+02 E0= -.41342316E+02  d E =-.396404E-03
 curvature:  -0.85 expect dE=-0.151E-03 dE for cont linesearch -0.319E-08
 trial: gam= 0.25299 g(F)=  0.172E-03 g(S)=  0.560E-05 ort =-0.195E-05 (trialstep = 0.109E+01)
 search vector abs. value=  0.242E-03
 bond charge predicted
       N       E                     dE             d eps       ncg     rms          rms(c)
DAV:   1    -0.413448672684E+02   -0.22394E-04   -0.60694E-02  9928   0.139E+00    0.408E-02
DAV:   2    -0.413450056829E+02   -0.13841E-03   -0.15707E-03 12040   0.275E-01    0.225E-02
DAV:   3    -0.413450025265E+02    0.31564E-05   -0.57608E-05 11308   0.793E-02    0.140E-02
DAV:   4    -0.413449989372E+02    0.35892E-05   -0.13821E-05 14344   0.773E-02    0.453E-03
DAV:   5    -0.413449993523E+02   -0.41510E-06   -0.64822E-06 14212   0.351E-02    0.230E-03
DAV:   6    -0.413449993336E+02    0.18697E-07   -0.65817E-07 14664   0.109E-02    0.130E-03
DAV:   7    -0.413449993313E+02    0.23338E-08   -0.20942E-07 11956   0.462E-03    0.736E-04
DAV:   8    -0.413449993327E+02   -0.13370E-08   -0.47655E-08 10984   0.162E-03
  10 F= -.41344999E+02 E0= -.41342455E+02  d E =-.154455E-03
 trial-energy change:   -0.000154  1 .order   -0.000161   -0.000192   -0.000130
 step:   3.3292(harm=  3.3292)  dis= 0.00416  next Energy=   -41.345140 (dE=-0.295E-03)
 bond charge predicted
       N       E                     dE             d eps       ncg     rms          rms(c)
DAV:   1    -0.413445682320E+02    0.43110E-03   -0.25900E-01  9932   0.286E+00    0.841E-02
DAV:   2    -0.413451588713E+02   -0.59064E-03   -0.67033E-03 12048   0.566E-01    0.463E-02
DAV:   3    -0.413451448709E+02    0.14000E-04   -0.24334E-04 11348   0.161E-01    0.289E-02
DAV:   4    -0.413451293213E+02    0.15550E-04   -0.60038E-05 14504   0.161E-01    0.927E-03
DAV:   5    -0.413451310017E+02   -0.16804E-05   -0.27537E-05 14316   0.733E-02    0.478E-03
DAV:   6    -0.413451308641E+02    0.13761E-06   -0.27822E-06 14852   0.232E-02    0.264E-03
DAV:   7    -0.413451308753E+02   -0.11237E-07   -0.94792E-07 11496   0.939E-03    0.155E-03
DAV:   8    -0.413451308775E+02   -0.21842E-08   -0.18639E-07 13816   0.378E-03    0.471E-04
DAV:   9    -0.413451308817E+02   -0.41814E-08   -0.52159E-08 10524   0.211E-03
  11 F= -.41345131E+02 E0= -.41342556E+02  d E =-.286004E-03
 curvature:  -2.27 expect dE=-0.166E-03 dE for cont linesearch -0.362E-07
 trial: gam= 0.42073 g(F)=  0.617E-04 g(S)=  0.111E-04 ort =-0.196E-05 (trialstep = 0.153E+01)
 search vector abs. value=  0.114E-03
 bond charge predicted
       N       E                     dE             d eps       ncg     rms          rms(c)
DAV:   1    -0.413451393070E+02   -0.84295E-05   -0.56475E-02 10312   0.129E+00    0.525E-02
DAV:   2    -0.413451996105E+02   -0.60303E-04   -0.10325E-03 11896   0.262E-01    0.315E-02
DAV:   3    -0.413451854289E+02    0.14182E-04   -0.50954E-05 13512   0.121E-01    0.144E-02
DAV:   4    -0.413451829603E+02    0.24686E-05   -0.18056E-05 12412   0.664E-02    0.347E-03
DAV:   5    -0.413451834016E+02   -0.44126E-06   -0.53982E-06 10664   0.301E-02    0.218E-03
DAV:   6    -0.413451834381E+02   -0.36596E-07   -0.62690E-07 12268   0.103E-02    0.161E-03
DAV:   7    -0.413451834782E+02   -0.40095E-07   -0.16890E-07 12820   0.816E-03    0.556E-04
DAV:   8    -0.413451834898E+02   -0.11513E-07   -0.59718E-08 10884   0.452E-03    0.238E-04
DAV:   9    -0.413451834948E+02   -0.50459E-08   -0.13570E-08  6288   0.882E-04
  12 F= -.41345183E+02 E0= -.41342642E+02  d E =-.526131E-04
 trial-energy change:   -0.000053  1 .order   -0.000044   -0.000111    0.000022
 step:   1.3440(harm=  1.2814)  dis= 0.00155  next Energy=   -41.345185 (dE=-0.540E-04)
 bond charge predicted
       N       E                     dE             d eps       ncg     rms          rms(c)
DAV:   1    -0.413451810976E+02    0.23922E-05   -0.87096E-04 10328   0.160E-01    0.651E-03
DAV:   2    -0.413451819702E+02   -0.87263E-06   -0.15921E-05 11696   0.324E-02    0.391E-03
DAV:   3    -0.413451817281E+02    0.24204E-06   -0.80192E-07 13824   0.148E-02    0.177E-03
DAV:   4    -0.413451816642E+02    0.63966E-07   -0.27039E-07 12304   0.823E-03    0.426E-04
DAV:   5    -0.413451816677E+02   -0.35438E-08   -0.82945E-08 10612   0.372E-03
  13 F= -.41345182E+02 E0= -.41342636E+02  d E =-.507860E-04
 curvature:  -0.95 expect dE=-0.297E-04 dE for cont linesearch -0.848E-07
 trial: gam= 0.45776 g(F)=  0.260E-04 g(S)=  0.517E-05 ort =-0.319E-05 (trialstep = 0.150E+01)
 search vector abs. value=  0.521E-04
 bond charge predicted
       N       E                     dE             d eps       ncg     rms          rms(c)
DAV:   1    -0.413451970556E+02   -0.15391E-04   -0.27062E-02 10752   0.102E+00    0.692E-02
DAV:   2    -0.413452127968E+02   -0.15741E-04   -0.10931E-03 11764   0.376E-01    0.283E-02
DAV:   3    -0.413452066887E+02    0.61080E-05   -0.77280E-05 12984   0.106E-01    0.155E-02
DAV:   4    -0.413452019762E+02    0.47126E-05   -0.12300E-05 13696   0.561E-02    0.428E-03
DAV:   5    -0.413452019564E+02    0.19790E-07   -0.46624E-06 11320   0.177E-02    0.133E-03
DAV:   6    -0.413452019906E+02   -0.34178E-07   -0.35031E-07 12328   0.485E-03    0.985E-04
DAV:   7    -0.413452020117E+02   -0.21111E-07   -0.22438E-08  7968   0.342E-03    0.557E-04
DAV:   8    -0.413452020424E+02   -0.30714E-07   -0.21497E-08  7952   0.180E-03    0.170E-04
DAV:   9    -0.413452020471E+02   -0.46489E-08   -0.69224E-09  5732   0.106E-03
  14 F= -.41345202E+02 E0= -.41342658E+02  d E =-.203793E-04
 trial-energy change:   -0.000020  1 .order   -0.000017   -0.000044    0.000011
 step:   1.2741(harm=  1.1993)  dis= 0.00065  next Energy=   -41.345203 (dE=-0.212E-04)
 bond charge predicted
       N       E                     dE             d eps       ncg     rms          rms(c)
DAV:   1    -0.413452028573E+02   -0.81494E-06   -0.59723E-04 10764   0.151E-01    0.103E-02
DAV:   2    -0.413452031290E+02   -0.27169E-06   -0.24221E-05 11740   0.559E-02    0.421E-03
DAV:   3    -0.413452030687E+02    0.60379E-07   -0.17069E-06 12972   0.157E-02    0.231E-03
DAV:   4    -0.413452029995E+02    0.69120E-07   -0.27099E-07 13708   0.839E-03    0.635E-04
DAV:   5    -0.413452030143E+02   -0.14754E-07   -0.10295E-07 10820   0.267E-03    0.198E-04
DAV:   6    -0.413452030111E+02    0.31941E-08   -0.68182E-09  5844   0.759E-04
  15 F= -.41345203E+02 E0= -.41342659E+02  d E =-.213434E-04
 curvature:  -0.99 expect dE=-0.160E-04 dE for cont linesearch -0.540E-07
 trial: gam= 0.51046 g(F)=  0.136E-04 g(S)=  0.268E-05 ort =-0.169E-05 (trialstep = 0.145E+01)
 search vector abs. value=  0.281E-04
 bond charge predicted
       N       E                     dE             d eps       ncg     rms          rms(c)
DAV:   1    -0.413451803478E+02    0.22666E-04   -0.13496E-02  9984   0.640E-01    0.279E-02
DAV:   2    -0.413452130168E+02   -0.32669E-04   -0.44660E-04 12568   0.184E-01    0.135E-02
DAV:   3    -0.413452128054E+02    0.21148E-06   -0.27678E-05 12064   0.531E-02    0.820E-03
DAV:   4    -0.413452116844E+02    0.11210E-05   -0.45214E-06 13660   0.332E-02    0.320E-03
DAV:   5    -0.413452117290E+02   -0.44671E-07   -0.16645E-06 11284   0.139E-02    0.131E-03
DAV:   6    -0.413452117466E+02   -0.17604E-07   -0.28196E-07 13184   0.621E-03    0.810E-04
DAV:   7    -0.413452117396E+02    0.70040E-08   -0.25608E-08  7552   0.307E-03
  16 F= -.41345212E+02 E0= -.41342679E+02  d E =-.872853E-05
 trial-energy change:   -0.000009  1 .order   -0.000008   -0.000022    0.000006
 step:   1.1790(harm=  1.1652)  dis= 0.00054  next Energy=   -41.345212 (dE=-0.924E-05)
 bond charge predicted
       N       E                     dE             d eps       ncg     rms          rms(c)
DAV:   1    -0.413452111447E+02    0.60195E-06   -0.47499E-04  9888   0.120E-01    0.520E-03
DAV:   2    -0.413452123087E+02   -0.11641E-05   -0.15608E-05 12552   0.346E-02    0.251E-03
DAV:   3    -0.413452122513E+02    0.57420E-07   -0.96305E-07 12068   0.995E-03    0.152E-03
DAV:   4    -0.413452121936E+02    0.57757E-07   -0.15660E-07 13556   0.621E-03    0.581E-04
DAV:   5    -0.413452121844E+02    0.91909E-08   -0.56555E-08 10688   0.263E-03
  17 F= -.41345212E+02 E0= -.41342678E+02  d E =-.917328E-05
 curvature:  -1.06 expect dE=-0.604E-05 dE for cont linesearch -0.185E-08
 trial: gam= 0.25899 g(F)=  0.531E-05 g(S)=  0.385E-06 ort = 0.222E-06 (trialstep = 0.140E+01)
 search vector abs. value=  0.770E-05
 bond charge predicted
       N       E                     dE             d eps       ncg     rms          rms(c)
DAV:   1    -0.413452070658E+02    0.51277E-05   -0.31933E-03 10032   0.321E-01    0.128E-02
DAV:   2    -0.413452157302E+02   -0.86643E-05   -0.10700E-04 11528   0.825E-02    0.637E-03
DAV:   3    -0.413452156841E+02    0.46105E-07   -0.60642E-06 12648   0.272E-02    0.388E-03
DAV:   4    -0.413452154268E+02    0.25724E-06   -0.88729E-07 13436   0.168E-02    0.110E-03
DAV:   5    -0.413452154434E+02   -0.16553E-07   -0.36125E-07 11064   0.621E-03    0.520E-04
DAV:   6    -0.413452154450E+02   -0.16594E-08   -0.52173E-08 11320   0.255E-03
  18 F= -.41345215E+02 E0= -.41342672E+02  d E =-.326066E-05
 trial-energy change:   -0.000003  1 .order   -0.000003   -0.000008    0.000001
 step:   1.1924(harm=  1.2058)  dis= 0.00034  next Energy=   -41.345216 (dE=-0.335E-05)
 bond charge predicted
       N       E                     dE             d eps       ncg     rms          rms(c)
DAV:   1    -0.413452153570E+02    0.86337E-07   -0.68653E-05 10028   0.472E-02    0.182E-03
DAV:   2    -0.413452155414E+02   -0.18434E-06   -0.22935E-06 11516   0.121E-02    0.952E-04
DAV:   3    -0.413452155313E+02    0.10080E-07   -0.13194E-07 12380   0.399E-03    0.576E-04
DAV:   4    -0.413452155258E+02    0.54511E-08   -0.17464E-08  6896   0.238E-03
  19 F= -.41345216E+02 E0= -.41342674E+02  d E =-.334147E-05
 curvature:  -0.80 expect dE=-0.868E-06 dE for cont linesearch -0.163E-08
 trial: gam= 0.18404 g(F)=  0.783E-06 g(S)=  0.299E-06 ort = 0.125E-06 (trialstep = 0.136E+01)
 search vector abs. value=  0.139E-05
 bond charge predicted
       N       E                     dE             d eps       ncg     rms          rms(c)
DAV:   1    -0.413452185271E+02   -0.29958E-05   -0.52037E-04 11172   0.181E-01    0.161E-02
DAV:   2    -0.413452172749E+02    0.12523E-05   -0.44111E-05 11916   0.893E-02    0.695E-03
DAV:   3    -0.413452167047E+02    0.57014E-06   -0.31144E-06 13340   0.217E-02    0.351E-03
DAV:   4    -0.413452163568E+02    0.34786E-06   -0.55965E-07 14424   0.111E-02    0.940E-04
DAV:   5    -0.413452163284E+02    0.28407E-07   -0.21715E-07 10988   0.355E-03    0.424E-04
DAV:   6    -0.413452163334E+02   -0.49949E-08   -0.11275E-08  6388   0.139E-03
  20 F= -.41345216E+02 E0= -.41342674E+02  d E =-.807589E-06
 trial-energy change:   -0.000001  1 .order   -0.000001   -0.000001   -0.000000
 step:   1.4112(harm=  1.4112)  dis= 0.00017  next Energy=   -41.345216 (dE=-0.779E-06)
 bond charge predicted
       N       E                     dE             d eps       ncg     rms          rms(c)
DAV:   1    -0.413452163563E+02   -0.27825E-07   -0.87810E-07 11288   0.744E-03    0.719E-04
DAV:   2    -0.413452163599E+02   -0.36116E-08   -0.71824E-08 10736   0.379E-03
  21 F= -.41345216E+02 E0= -.41342674E+02  d E =-.834031E-06
 curvature:  -0.89 expect dE=-0.400E-06 dE for cont linesearch -0.770E-09
 trial: gam= 0.43759 g(F)=  0.272E-06 g(S)=  0.179E-06 ort =-0.347E-07 (trialstep = 0.137E+01)
 search vector abs. value=  0.686E-06
 bond charge predicted
       N       E                     dE             d eps       ncg     rms          rms(c)
DAV:   1    -0.413452168795E+02   -0.52325E-06   -0.25654E-04 10192   0.109E-01    0.826E-03
DAV:   2    -0.413452167657E+02    0.11379E-06   -0.13607E-05 11552   0.469E-02    0.394E-03
DAV:   3    -0.413452167335E+02    0.32191E-07   -0.88394E-07 13256   0.119E-02    0.199E-03
DAV:   4    -0.413452167421E+02   -0.85329E-08   -0.18667E-07 14128   0.532E-03    0.456E-04
DAV:   5    -0.413452167581E+02   -0.16032E-07   -0.61069E-08 10488   0.219E-03    0.246E-04
DAV:   6    -0.413452167541E+02    0.39813E-08   -0.52763E-09  5648   0.953E-04
  22 F= -.41345217E+02 E0= -.41342677E+02  d E =-.394240E-06
 trial-energy change:   -0.000000  1 .order   -0.000000   -0.000001   -0.000000
 step:   1.4465(harm=  1.5101)  dis= 0.00009  next Energy=   -41.345217 (dE=-0.396E-06)
 bond charge predicted
       N       E                     dE             d eps       ncg     rms          rms(c)
DAV:   1    -0.413452167509E+02    0.72096E-08   -0.87130E-07 10280   0.635E-03    0.513E-04
DAV:   2    -0.413452167473E+02    0.36230E-08   -0.44930E-08 10600   0.275E-03
  23 F= -.41345217E+02 E0= -.41342677E+02  d E =-.387389E-06
 curvature:  -0.95 expect dE=-0.305E-06 dE for cont linesearch -0.267E-10
 trial: gam= 0.84041 g(F)=  0.168E-06 g(S)=  0.152E-06 ort =-0.439E-08 (trialstep = 0.119E+01)
 search vector abs. value=  0.798E-06
 bond charge predicted
       N       E                     dE             d eps       ncg     rms          rms(c)
DAV:   1    -0.413452172431E+02   -0.49226E-06   -0.23417E-04 10956   0.100E-01    0.717E-03
DAV:   2    -0.413452171973E+02    0.45892E-07   -0.10084E-05 11112   0.399E-02    0.311E-03
DAV:   3    -0.413452170486E+02    0.14863E-06   -0.67559E-07 13340   0.107E-02    0.161E-03
DAV:   4    -0.413452169541E+02    0.94512E-07   -0.12625E-07 13344   0.483E-03    0.434E-04
DAV:   5    -0.413452169401E+02    0.14064E-07   -0.45935E-08  9868   0.183E-03    0.156E-04
DAV:   6    -0.413452169439E+02   -0.38040E-08   -0.31112E-09  5468   0.621E-04
  24 F= -.41345217E+02 E0= -.41342676E+02  d E =-.196590E-06
 trial-energy change:   -0.000000  1 .order   -0.000000   -0.000000   -0.000000
 step:   1.2960(harm=  1.2960)  dis= 0.00010  next Energy=   -41.345217 (dE=-0.205E-06)
 bond charge predicted
       N       E                     dE             d eps       ncg     rms          rms(c)
DAV:   1    -0.413452169568E+02   -0.16772E-07   -0.18599E-06 11012   0.896E-03    0.660E-04
DAV:   2    -0.413452169616E+02   -0.47789E-08   -0.79209E-08 10884   0.360E-03
  25 F= -.41345217E+02 E0= -.41342676E+02  d E =-.214336E-06
 curvature:  -1.63 expect dE=-0.364E-06 dE for cont linesearch -0.396E-08
 trial: gam= 0.82386 g(F)=  0.944E-07 g(S)=  0.129E-06 ort =-0.440E-07 (trialstep = 0.121E+01)
 search vector abs. value=  0.692E-06
 bond charge predicted
       N       E                     dE             d eps       ncg     rms          rms(c)
DAV:   1    -0.413452167889E+02    0.16794E-06   -0.21805E-04  9996   0.905E-02    0.500E-03
DAV:   2    -0.413452170128E+02   -0.22390E-06   -0.76269E-06 11456   0.312E-02    0.220E-03
DAV:   3    -0.413452170384E+02   -0.25584E-07   -0.54870E-07 12548   0.841E-03    0.119E-03
DAV:   4    -0.413452170413E+02   -0.29468E-08   -0.84328E-08 13368   0.437E-03
  26 F= -.41345217E+02 E0= -.41342676E+02  d E =-.797063E-07
 trial-energy change:   -0.000000  1 .order   -0.000000   -0.000000    0.000000
 step:   0.8785(harm=  0.6859)  dis= 0.00007  next Energy=   -41.345217 (dE=-0.102E-06)
 bond charge predicted
       N       E                     dE             d eps       ncg     rms          rms(c)
DAV:   1    -0.413452170558E+02   -0.17454E-07   -0.16442E-05 10008   0.247E-02    0.135E-03
DAV:   2    -0.413452170830E+02   -0.27149E-07   -0.59293E-07 11276   0.878E-03    0.623E-04
DAV:   3    -0.413452170656E+02    0.17315E-07   -0.40558E-08 11040   0.226E-03    0.343E-04
DAV:   4    -0.413452170524E+02    0.13290E-07   -0.52933E-09  5112   0.115E-03    0.105E-04
DAV:   5    -0.413452170485E+02    0.38185E-08   -0.40030E-09  4992   0.573E-04
  27 F= -.41345217E+02 E0= -.41342676E+02  d E =-.869391E-07
 curvature:  -1.10 expect dE=-0.951E-07 dE for cont linesearch -0.692E-11
 trial: gam= 0.34051 g(F)=  0.466E-07 g(S)=  0.400E-07 ort = 0.209E-08 (trialstep = 0.114E+01)
 search vector abs. value=  0.168E-06
 reached required accuracy - stopping structural energy minimisation
 writing wavefunctions
Tue Jan  4 01:49:47 CST 2022
