Mon Jan  3 23:13:38 CST 2022
 running on   48 total cores
 distrk:  each k-point on   48 cores,    1 groups
 distr:  one band on   24 cores,    2 groups
 using from now: INCAR     
 vasp.5.3.5 31Mar14 (build Jan 11 2016 19:50:55) complex                        
  
 POSCAR found type information on POSCAR  Zn Ga N  O 
 POSCAR found :  4 types and       8 ions
 scaLAPACK will be used

 ----------------------------------------------------------------------------- 
|                                                                             |
|           W    W    AA    RRRRR   N    N  II  N    N   GGGG   !!!           |
|           W    W   A  A   R    R  NN   N  II  NN   N  G    G  !!!           |
|           W    W  A    A  R    R  N N  N  II  N N  N  G       !!!           |
|           W WW W  AAAAAA  RRRRR   N  N N  II  N  N N  G  GGG   !            |
|           WW  WW  A    A  R   R   N   NN  II  N   NN  G    G                |
|           W    W  A    A  R    R  N    N  II  N    N   GGGG   !!!           |
|                                                                             |
|      For optimal performance we recommend to set                            |
|        NCORE= 4 - approx SQRT( number of cores)                             |
|      NCORE specifies how many cores store one orbital (NPAR=cpu/NCORE).     |
|      This setting can  greatly improve the performance of VASP for DFT.     |
|      The default, NPAR=number of cores might be grossly inefficient         |
|      on modern multi-core architectures or massively parallel machines.     |
|      Do your own testing !!!!                                               |
|      Unfortunately you need to use the default for GW and RPA calculations. |
|      (for HF NCORE is supported but not extensively tested yet)             |
|                                                                             |
 ----------------------------------------------------------------------------- 

 LDA part: xc-table for Pade appr. of Perdew
 POSCAR, INCAR and KPOINTS ok, starting setup
 WARNING: small aliasing (wrap around) errors must be expected
 FFT: planning ...
 WAVECAR not read
 entering main loop
       N       E                     dE             d eps       ncg     rms          rms(c)
DAV:   1     0.898130569324E+03    0.89813E+03   -0.41305E+04 10212   0.341E+03
DAV:   2     0.136375191873E+03   -0.76176E+03   -0.73123E+03  9880   0.786E+02
DAV:   3    -0.344288455609E+02   -0.17080E+03   -0.16626E+03 11008   0.268E+02
DAV:   4    -0.489821955558E+02   -0.14553E+02   -0.14380E+02 12152   0.800E+01
DAV:   5    -0.494425111507E+02   -0.46032E+00   -0.45859E+00 12412   0.143E+01    0.172E+01
DAV:   6    -0.412406132052E+02    0.82019E+01   -0.23043E+01 18760   0.817E+01    0.800E+00
DAV:   7    -0.420081512264E+02   -0.76754E+00   -0.94125E+00 10608   0.214E+01    0.554E+00
DAV:   8    -0.419080951105E+02    0.10006E+00   -0.12048E+00 15492   0.977E+00    0.253E+00
DAV:   9    -0.418791927734E+02    0.28902E-01   -0.19090E-01 12780   0.460E+00    0.111E+00
DAV:  10    -0.418660671958E+02    0.13126E-01   -0.74856E-02 14152   0.192E+00    0.401E-01
DAV:  11    -0.418665058315E+02   -0.43864E-03   -0.12526E-02 13024   0.964E-01    0.118E-01
DAV:  12    -0.418666966237E+02   -0.19079E-03   -0.25153E-03 12752   0.580E-01    0.474E-02
DAV:  13    -0.418667450199E+02   -0.48396E-04   -0.40133E-04 11340   0.221E-01    0.580E-02
DAV:  14    -0.418667377779E+02    0.72419E-05   -0.76266E-05 14188   0.143E-01    0.239E-02
DAV:  15    -0.418667377201E+02    0.57837E-07   -0.24366E-05 13748   0.623E-02    0.123E-02
DAV:  16    -0.418667384975E+02   -0.77742E-06   -0.13586E-05 12796   0.514E-02    0.791E-03
DAV:  17    -0.418667388304E+02   -0.33289E-06   -0.19599E-06 13896   0.158E-02    0.372E-03
DAV:  18    -0.418667388104E+02    0.20038E-07   -0.52734E-07 12012   0.596E-03    0.860E-04
DAV:  19    -0.418667387691E+02    0.41249E-07   -0.86587E-08 11824   0.271E-03    0.508E-04
DAV:  20    -0.418667387228E+02    0.46336E-07   -0.63225E-09  6252   0.229E-03    0.170E-04
DAV:  21    -0.418667387195E+02    0.32460E-08   -0.32381E-09  5696   0.968E-04
   1 F= -.41866739E+02 E0= -.41866732E+02  d E =-.418667E+02
 curvature:   0.00 expect dE= 0.000E+00 dE for cont linesearch  0.000E+00
 trial: gam= 0.00000 g(F)=  0.101E-04 g(S)=  0.353E-05 ort = 0.000E+00 (trialstep = 0.100E+01)
 search vector abs. value=  0.136E-04
 bond charge predicted
       N       E                     dE             d eps       ncg     rms          rms(c)
DAV:   1    -0.418667583073E+02   -0.19585E-04   -0.24103E-03 10596   0.340E-01    0.297E-02
DAV:   2    -0.418667545386E+02    0.37687E-05   -0.13951E-04 11508   0.157E-01    0.153E-02
DAV:   3    -0.418667515735E+02    0.29651E-05   -0.13174E-05 14448   0.439E-02    0.718E-03
DAV:   4    -0.418667503629E+02    0.12105E-05   -0.25335E-06 12372   0.200E-02    0.148E-03
DAV:   5    -0.418667503630E+02   -0.19099E-10   -0.89449E-07 10684   0.772E-03    0.687E-04
DAV:   6    -0.418667503807E+02   -0.17712E-07   -0.35690E-08  9504   0.263E-03    0.293E-04
DAV:   7    -0.418667503874E+02   -0.67766E-08   -0.98274E-09  5816   0.136E-03
   2 F= -.41866750E+02 E0= -.41866743E+02  d E =-.116679E-04
 trial-energy change:   -0.000012  1 .order   -0.000009   -0.000014   -0.000004
 step:   1.1602(harm=  1.4786)  dis= 0.00034  next Energy=   -41.866751 (dE=-0.120E-04)
 bond charge predicted
       N       E                     dE             d eps       ncg     rms          rms(c)
DAV:   1    -0.418667512390E+02   -0.85828E-06   -0.61856E-05 10584   0.546E-02    0.477E-03
DAV:   2    -0.418667511573E+02    0.81622E-07   -0.35721E-06 11520   0.251E-02    0.245E-03
DAV:   3    -0.418667510324E+02    0.12490E-06   -0.34140E-07 14452   0.708E-03    0.114E-03
DAV:   4    -0.418667509695E+02    0.62907E-07   -0.65841E-08 11144   0.328E-03    0.242E-04
DAV:   5    -0.418667509617E+02    0.78635E-08   -0.21579E-08  5892   0.130E-03
   3 F= -.41866751E+02 E0= -.41866744E+02  d E =-.122421E-04
 curvature:  -0.41 expect dE=-0.152E-05 dE for cont linesearch -0.297E-06
 ZBRENT: increasing intervall
 opt :   1.4805  next Energy=   -41.866752 (dE=-0.128E-04)
 bond charge predicted
       N       E                     dE             d eps       ncg     rms          rms(c)
DAV:   1    -0.418667523518E+02   -0.13822E-05   -0.24721E-04 10512   0.109E-01    0.950E-03
DAV:   2    -0.418667519873E+02    0.36441E-06   -0.14191E-05 11500   0.500E-02    0.491E-03
DAV:   3    -0.418667516038E+02    0.38358E-06   -0.13423E-06 14504   0.141E-02    0.230E-03
DAV:   4    -0.418667514267E+02    0.17710E-06   -0.25997E-07 12480   0.647E-03    0.468E-04
DAV:   5    -0.418667514156E+02    0.11102E-07   -0.90771E-08 10584   0.252E-03    0.220E-04
DAV:   6    -0.418667514213E+02   -0.57353E-08   -0.35976E-09  5572   0.110E-03
   4 F= -.41866751E+02 E0= -.41866744E+02  d E =-.127018E-04
 curvature:  -0.83 expect dE=-0.454E-05 dE for cont linesearch -0.515E-09
 trial: gam= 0.39624 g(F)=  0.276E-05 g(S)=  0.274E-05 ort = 0.923E-07 (trialstep = 0.110E+01)
 search vector abs. value=  0.772E-05
 bond charge predicted
       N       E                     dE             d eps       ncg     rms          rms(c)
DAV:   1    -0.418667718696E+02   -0.20454E-04   -0.18521E-03 12472   0.393E-01    0.381E-02
DAV:   2    -0.418667571088E+02    0.14761E-04   -0.18792E-04 13412   0.193E-01    0.152E-02
DAV:   3    -0.418667549870E+02    0.21218E-05   -0.13512E-05 14736   0.462E-02    0.717E-03
DAV:   4    -0.418667540894E+02    0.89751E-06   -0.18690E-06 15812   0.216E-02    0.185E-03
DAV:   5    -0.418667541451E+02   -0.55627E-07   -0.83558E-07 10700   0.774E-03    0.947E-04
DAV:   6    -0.418667541330E+02    0.12078E-07   -0.34979E-08 10152   0.156E-03    0.572E-04
DAV:   7    -0.418667541096E+02    0.23382E-07   -0.10495E-08  5856   0.119E-03    0.236E-04
DAV:   8    -0.418667541002E+02    0.94374E-08   -0.27975E-09  5572   0.778E-04
   5 F= -.41866754E+02 E0= -.41866747E+02  d E =-.267888E-05
 trial-energy change:   -0.000003  1 .order   -0.000003   -0.000006    0.000000
 step:   1.0132(harm=  1.0230)  dis= 0.00019  next Energy=   -41.866754 (dE=-0.270E-05)
 bond charge predicted
       N       E                     dE             d eps       ncg     rms          rms(c)
DAV:   1    -0.418667542640E+02   -0.15438E-06   -0.10609E-05 12460   0.297E-02    0.288E-03
DAV:   2    -0.418667541839E+02    0.80127E-07   -0.10782E-06 13428   0.146E-02    0.116E-03
DAV:   3    -0.418667541433E+02    0.40530E-07   -0.73737E-08 10712   0.349E-03    0.547E-04
DAV:   4    -0.418667541207E+02    0.22680E-07   -0.78872E-09  5288   0.167E-03    0.144E-04
DAV:   5    -0.418667541146E+02    0.60613E-08   -0.10548E-08  5996   0.954E-04
   6 F= -.41866754E+02 E0= -.41866747E+02  d E =-.269329E-05
 curvature:  -0.70 expect dE=-0.945E-06 dE for cont linesearch -0.248E-08
 trial: gam= 0.29212 g(F)=  0.824E-06 g(S)=  0.527E-06 ort =-0.165E-06 (trialstep = 0.108E+01)
 search vector abs. value=  0.191E-05
 bond charge predicted
       N       E                     dE             d eps       ncg     rms          rms(c)
DAV:   1    -0.418667550702E+02   -0.94955E-06   -0.50505E-04 10968   0.141E-01    0.996E-03
DAV:   2    -0.418667552977E+02   -0.22751E-06   -0.22274E-05 11852   0.564E-02    0.438E-03
DAV:   3    -0.418667550881E+02    0.20964E-06   -0.17393E-06 12880   0.161E-02    0.223E-03
DAV:   4    -0.418667549591E+02    0.12898E-06   -0.28323E-07 13324   0.772E-03    0.658E-04
DAV:   5    -0.418667549439E+02    0.15230E-07   -0.99023E-08 10672   0.250E-03    0.201E-04
DAV:   6    -0.418667549483E+02   -0.44565E-08   -0.50441E-09  5836   0.773E-04
   7 F= -.41866755E+02 E0= -.41866748E+02  d E =-.833725E-06
 trial-energy change:   -0.000001  1 .order   -0.000001   -0.000001   -0.000000
 step:   1.2526(harm=  1.2526)  dis= 0.00015  next Energy=   -41.866755 (dE=-0.816E-06)
 bond charge predicted
       N       E                     dE             d eps       ncg     rms          rms(c)
DAV:   1    -0.418667549986E+02   -0.54762E-07   -0.13042E-05 10920   0.227E-02    0.162E-03
DAV:   2    -0.418667550121E+02   -0.13505E-07   -0.58059E-07 11928   0.928E-03    0.710E-04
DAV:   3    -0.418667549950E+02    0.17104E-07   -0.45184E-08  9648   0.285E-03    0.360E-04
DAV:   4    -0.418667549866E+02    0.84083E-08   -0.72845E-09  5472   0.150E-03
   8 F= -.41866755E+02 E0= -.41866748E+02  d E =-.872023E-06
 curvature:  -0.92 expect dE=-0.348E-06 dE for cont linesearch -0.506E-10
 trial: gam= 0.31281 g(F)=  0.297E-06 g(S)=  0.816E-07 ort =-0.103E-07 (trialstep = 0.111E+01)
 search vector abs. value=  0.559E-06
 bond charge predicted
       N       E                     dE             d eps       ncg     rms          rms(c)
DAV:   1    -0.418667553374E+02   -0.34236E-06   -0.15576E-04 10912   0.752E-02    0.522E-03
DAV:   2    -0.418667552291E+02    0.10830E-06   -0.50455E-06 11780   0.296E-02    0.270E-03
DAV:   3    -0.418667552478E+02   -0.18676E-07   -0.35072E-07 13312   0.817E-03    0.126E-03
DAV:   4    -0.418667552701E+02   -0.22321E-07   -0.67770E-08 12668   0.371E-03    0.351E-04
DAV:   5    -0.418667552857E+02   -0.15609E-07   -0.28170E-08  7608   0.140E-03    0.136E-04
DAV:   6    -0.418667552829E+02    0.28131E-08   -0.17857E-09  5368   0.664E-04
   9 F= -.41866755E+02 E0= -.41866748E+02  d E =-.296256E-06
 trial-energy change:   -0.000000  1 .order   -0.000000   -0.000000   -0.000000
 step:   1.2533(harm=  1.3835)  dis= 0.00008  next Energy=   -41.866755 (dE=-0.301E-06)
 bond charge predicted
       N       E                     dE             d eps       ncg     rms          rms(c)
DAV:   1    -0.418667552845E+02    0.12269E-08   -0.24389E-06 11040   0.945E-03    0.656E-04
DAV:   2    -0.418667552819E+02    0.25111E-08   -0.77489E-08 10476   0.371E-03
  10 F= -.41866755E+02 E0= -.41866748E+02  d E =-.295331E-06
 curvature:  -0.79 expect dE=-0.258E-06 dE for cont linesearch -0.171E-10
 trial: gam= 0.88543 g(F)=  0.949E-07 g(S)=  0.231E-06 ort = 0.348E-08 (trialstep = 0.829E+00)
 search vector abs. value=  0.771E-06
 bond charge predicted
       N       E                     dE             d eps       ncg     rms          rms(c)
DAV:   1    -0.418667560576E+02   -0.77312E-06   -0.11117E-04 12568   0.802E-02    0.712E-03
DAV:   2    -0.418667556836E+02    0.37402E-06   -0.74023E-06 13068   0.383E-02    0.291E-03
DAV:   3    -0.418667555278E+02    0.15579E-06   -0.45687E-07 12880   0.966E-03    0.138E-03
DAV:   4    -0.418667554492E+02    0.78596E-07   -0.80015E-08 13476   0.420E-03    0.372E-04
DAV:   5    -0.418667554338E+02    0.15359E-07   -0.33352E-08  8376   0.146E-03    0.139E-04
DAV:   6    -0.418667554349E+02   -0.11419E-08   -0.18433E-09  5380   0.419E-04
  11 F= -.41866755E+02 E0= -.41866748E+02  d E =-.153003E-06
 trial-energy change:   -0.000000  1 .order   -0.000000   -0.000000    0.000000
 step:   0.8112(harm=  0.8112)  dis= 0.00006  next Energy=   -41.866755 (dE=-0.133E-06)
 bond charge predicted
       N       E                     dE             d eps       ncg     rms          rms(c)
DAV:   1    -0.418667554348E+02   -0.94997E-09   -0.44460E-08  7360   0.167E-03    0.146E-04
DAV:   2    -0.418667554354E+02   -0.67166E-09   -0.55323E-09  5164   0.126E-03
  12 F= -.41866755E+02 E0= -.41866748E+02  d E =-.153483E-06
 curvature:  -0.95 expect dE=-0.143E-06 dE for cont linesearch -0.987E-08
 trial: gam= 0.19845 g(F)=  0.120E-06 g(S)=  0.311E-07 ort = 0.895E-07 (trialstep = 0.825E+00)
 search vector abs. value=  0.217E-06
 bond charge predicted
       N       E                     dE             d eps       ncg     rms          rms(c)
DAV:   1    -0.418667555008E+02   -0.66023E-07   -0.28203E-05 10088   0.311E-02    0.189E-03
DAV:   2    -0.418667555400E+02   -0.39237E-07   -0.10444E-06 11972   0.913E-03    0.119E-03
DAV:   3    -0.418667555025E+02    0.37533E-07   -0.74471E-08 13164   0.330E-03    0.497E-04
DAV:   4    -0.418667554922E+02    0.10285E-07   -0.18421E-08  6056   0.188E-03    0.112E-04
DAV:   5    -0.418667554908E+02    0.13829E-08   -0.86412E-09  5352   0.106E-03
  13 F= -.41866755E+02 E0= -.41866748E+02  d E =-.553869E-07
 trial-energy change:   -0.000000  1 .order   -0.000000   -0.000000   -0.000000
 step:   1.0323(harm=  1.0323)  dis= 0.00003  next Energy=   -41.866756 (dE=-0.870E-07)
 bond charge predicted
       N       E                     dE             d eps       ncg     rms          rms(c)
DAV:   1    -0.418667554963E+02   -0.41509E-08   -0.17898E-06 10136   0.787E-03    0.486E-04
DAV:   2    -0.418667554986E+02   -0.22756E-08   -0.67937E-08 11760   0.241E-03
  14 F= -.41866755E+02 E0= -.41866748E+02  d E =-.631962E-07
 curvature:  -0.66 expect dE=-0.728E-07 dE for cont linesearch -0.921E-10
 trial: gam= 0.60322 g(F)=  0.281E-07 g(S)=  0.816E-07 ort = 0.548E-08 (trialstep = 0.867E+00)
 search vector abs. value=  0.195E-06
 reached required accuracy - stopping structural energy minimisation
 writing wavefunctions
Mon Jan  3 23:16:26 CST 2022
