Tue Jan  4 00:13:21 CST 2022
 running on   48 total cores
 distrk:  each k-point on   48 cores,    1 groups
 distr:  one band on   24 cores,    2 groups
 using from now: INCAR     
 vasp.5.3.5 31Mar14 (build Jan 11 2016 19:50:55) complex                        
  
 POSCAR found type information on POSCAR  Zn Ga N  O 
 POSCAR found :  4 types and       8 ions
 scaLAPACK will be used

 ----------------------------------------------------------------------------- 
|                                                                             |
|           W    W    AA    RRRRR   N    N  II  N    N   GGGG   !!!           |
|           W    W   A  A   R    R  NN   N  II  NN   N  G    G  !!!           |
|           W    W  A    A  R    R  N N  N  II  N N  N  G       !!!           |
|           W WW W  AAAAAA  RRRRR   N  N N  II  N  N N  G  GGG   !            |
|           WW  WW  A    A  R   R   N   NN  II  N   NN  G    G                |
|           W    W  A    A  R    R  N    N  II  N    N   GGGG   !!!           |
|                                                                             |
|      For optimal performance we recommend to set                            |
|        NCORE= 4 - approx SQRT( number of cores)                             |
|      NCORE specifies how many cores store one orbital (NPAR=cpu/NCORE).     |
|      This setting can  greatly improve the performance of VASP for DFT.     |
|      The default, NPAR=number of cores might be grossly inefficient         |
|      on modern multi-core architectures or massively parallel machines.     |
|      Do your own testing !!!!                                               |
|      Unfortunately you need to use the default for GW and RPA calculations. |
|      (for HF NCORE is supported but not extensively tested yet)             |
|                                                                             |
 ----------------------------------------------------------------------------- 

 LDA part: xc-table for Pade appr. of Perdew
 POSCAR, INCAR and KPOINTS ok, starting setup
 WARNING: small aliasing (wrap around) errors must be expected
 FFT: planning ...
 WAVECAR not read
 entering main loop
       N       E                     dE             d eps       ncg     rms          rms(c)
DAV:   1     0.905274501112E+03    0.90527E+03   -0.42254E+04 10232   0.331E+03
DAV:   2     0.146399159257E+03   -0.75888E+03   -0.72990E+03  9920   0.787E+02
DAV:   3    -0.274311035253E+02   -0.17383E+03   -0.16850E+03 11280   0.267E+02
DAV:   4    -0.430690580414E+02   -0.15638E+02   -0.15461E+02 12220   0.803E+01
DAV:   5    -0.435554385262E+02   -0.48638E+00   -0.48429E+00 12616   0.142E+01    0.168E+01
DAV:   6    -0.368882849931E+02    0.66672E+01   -0.22243E+01 18616   0.774E+01    0.862E+00
DAV:   7    -0.372892112484E+02   -0.40093E+00   -0.65792E+00 10588   0.186E+01    0.524E+00
DAV:   8    -0.372316363295E+02    0.57575E-01   -0.12098E+00 15480   0.840E+00    0.231E+00
DAV:   9    -0.371825969460E+02    0.49039E-01   -0.30359E-01 14488   0.607E+00    0.652E-01
DAV:  10    -0.371846239002E+02   -0.20270E-02   -0.45311E-02 11052   0.206E+00    0.358E-01
DAV:  11    -0.371851641506E+02   -0.54025E-03   -0.61753E-03 13668   0.924E-01    0.153E-01
DAV:  12    -0.371852960146E+02   -0.13186E-03   -0.17223E-03 12284   0.627E-01    0.483E-02
DAV:  13    -0.371853030577E+02   -0.70431E-05   -0.42577E-04 12796   0.242E-01    0.300E-02
DAV:  14    -0.371853060395E+02   -0.29817E-05   -0.10302E-04 12460   0.130E-01    0.126E-02
DAV:  15    -0.371853131402E+02   -0.71008E-05   -0.27106E-05 10676   0.477E-02    0.605E-03
DAV:  16    -0.371853137332E+02   -0.59300E-06   -0.51731E-06 12892   0.286E-02    0.205E-03
DAV:  17    -0.371853141101E+02   -0.37683E-06   -0.13646E-06 11272   0.948E-03    0.204E-03
DAV:  18    -0.371853140770E+02    0.33034E-07   -0.19160E-07 13012   0.707E-03    0.897E-04
DAV:  19    -0.371853141131E+02   -0.36057E-07   -0.13542E-07 10628   0.434E-03    0.265E-04
DAV:  20    -0.371853141149E+02   -0.18499E-08   -0.30989E-08 10980   0.141E-03
   1 F= -.37185314E+02 E0= -.37183329E+02  d E =-.371853E+02
 curvature:   0.00 expect dE= 0.000E+00 dE for cont linesearch  0.000E+00
 trial: gam= 0.00000 g(F)=  0.128E-03 g(S)=  0.231E-03 ort = 0.000E+00 (trialstep = 0.100E+01)
 search vector abs. value=  0.360E-03
 bond charge predicted
       N       E                     dE             d eps       ncg     rms          rms(c)
DAV:   1    -0.371860472989E+02   -0.73319E-03   -0.49813E-02  9948   0.157E+00    0.197E-01
DAV:   2    -0.371857526633E+02    0.29464E-03   -0.41458E-03 12384   0.807E-01    0.111E-01
DAV:   3    -0.371855691589E+02    0.18350E-03   -0.36891E-04 12496   0.268E-01    0.502E-02
DAV:   4    -0.371855208195E+02    0.48339E-04   -0.13200E-04 12392   0.139E-01    0.786E-03
DAV:   5    -0.371855240494E+02   -0.32299E-05   -0.41509E-05 10744   0.523E-02    0.470E-03
DAV:   6    -0.371855239858E+02    0.63567E-07   -0.18313E-06 12468   0.151E-02    0.264E-03
DAV:   7    -0.371855240368E+02   -0.51024E-07   -0.48503E-07 13636   0.128E-02    0.939E-04
DAV:   8    -0.371855240652E+02   -0.28362E-07   -0.14397E-07 12756   0.500E-03    0.516E-04
DAV:   9    -0.371855240637E+02    0.15352E-08   -0.24676E-08  7576   0.140E-03
   2 F= -.37185524E+02 E0= -.37183316E+02  d E =-.209949E-03
 trial-energy change:   -0.000210  1 .order   -0.000212   -0.000360   -0.000064
 step:   1.2263(harm=  1.2158)  dis= 0.00154  next Energy=   -37.185531 (dE=-0.217E-03)
 bond charge predicted
       N       E                     dE             d eps       ncg     rms          rms(c)
DAV:   1    -0.371855578055E+02   -0.33740E-04   -0.25483E-03  9944   0.354E-01    0.445E-02
DAV:   2    -0.371855428833E+02    0.14922E-04   -0.21114E-04 12392   0.182E-01    0.251E-02
DAV:   3    -0.371855331790E+02    0.97043E-05   -0.18851E-05 12484   0.607E-02    0.113E-02
DAV:   4    -0.371855305470E+02    0.26320E-05   -0.67391E-06 12304   0.315E-02    0.177E-03
DAV:   5    -0.371855307099E+02   -0.16290E-06   -0.21314E-06 10740   0.118E-02    0.106E-03
DAV:   6    -0.371855307141E+02   -0.42019E-08   -0.93622E-08 12368   0.333E-03
   3 F= -.37185531E+02 E0= -.37183269E+02  d E =-.216599E-03
 curvature:  -0.61 expect dE=-0.103E-03 dE for cont linesearch -0.253E-07
 trial: gam= 0.48241 g(F)=  0.138E-03 g(S)=  0.313E-04 ort =-0.388E-05 (trialstep = 0.105E+01)
 search vector abs. value=  0.250E-03
 bond charge predicted
       N       E                     dE             d eps       ncg     rms          rms(c)
DAV:   1    -0.371859325664E+02   -0.40186E-03   -0.38535E-02  9920   0.115E+00    0.136E-01
DAV:   2    -0.371857690865E+02    0.16348E-03   -0.14222E-03 12176   0.364E-01    0.806E-02
DAV:   3    -0.371856404758E+02    0.12861E-03   -0.23097E-04 12704   0.163E-01    0.203E-02
DAV:   4    -0.371856393164E+02    0.11594E-05   -0.73220E-05 11796   0.930E-02    0.682E-03
DAV:   5    -0.371856400010E+02   -0.68467E-06   -0.12799E-05 10884   0.379E-02    0.409E-03
DAV:   6    -0.371856399916E+02    0.94710E-08   -0.17957E-06 13660   0.222E-02    0.242E-03
DAV:   7    -0.371856400053E+02   -0.13769E-07   -0.51496E-07 10968   0.792E-03    0.131E-03
DAV:   8    -0.371856400101E+02   -0.47717E-08   -0.15196E-07 13756   0.391E-03    0.396E-04
DAV:   9    -0.371856400105E+02   -0.44020E-09   -0.32280E-08  9380   0.248E-03
   4 F= -.37185640E+02 E0= -.37183324E+02  d E =-.109296E-03
 trial-energy change:   -0.000109  1 .order   -0.000111   -0.000175   -0.000047
 step:   1.4968(harm=  1.4325)  dis= 0.00109  next Energy=   -37.185650 (dE=-0.119E-03)
 bond charge predicted
       N       E                     dE             d eps       ncg     rms          rms(c)
DAV:   1    -0.371857043382E+02   -0.64328E-04   -0.71919E-03  9928   0.497E-01    0.588E-02
DAV:   2    -0.371856738641E+02    0.30474E-04   -0.26574E-04 12176   0.158E-01    0.348E-02
DAV:   3    -0.371856499904E+02    0.23874E-04   -0.43238E-05 12868   0.717E-02    0.882E-03
DAV:   4    -0.371856497659E+02    0.22455E-06   -0.13591E-05 11780   0.415E-02    0.296E-03
DAV:   5    -0.371856499017E+02   -0.13580E-06   -0.24157E-06 10896   0.166E-02    0.177E-03
DAV:   6    -0.371856499002E+02    0.15370E-08   -0.33751E-07 13356   0.960E-03    0.105E-03
DAV:   7    -0.371856499047E+02   -0.45306E-08   -0.99820E-08 10772   0.348E-03
   5 F= -.37185650E+02 E0= -.37183310E+02  d E =-.119191E-03
 curvature:  -1.04 expect dE=-0.780E-04 dE for cont linesearch -0.291E-06
 trial: gam= 0.48236 g(F)=  0.565E-04 g(S)=  0.188E-04 ort =-0.838E-05 (trialstep = 0.114E+01)
 search vector abs. value=  0.125E-03
 bond charge predicted
       N       E                     dE             d eps       ncg     rms          rms(c)
DAV:   1    -0.371858825602E+02   -0.23266E-03   -0.29113E-02 10992   0.122E+00    0.125E-01
DAV:   2    -0.371857518623E+02    0.13070E-03   -0.20466E-03 11180   0.598E-01    0.576E-02
DAV:   3    -0.371857205120E+02    0.31350E-04   -0.17762E-04 14060   0.176E-01    0.291E-02
DAV:   4    -0.371857062410E+02    0.14271E-04   -0.34286E-05 14240   0.821E-02    0.817E-03
DAV:   5    -0.371857061291E+02    0.11187E-06   -0.11434E-05 10940   0.320E-02    0.272E-03
DAV:   6    -0.371857062425E+02   -0.11342E-06   -0.20153E-06 12076   0.131E-02    0.173E-03
DAV:   7    -0.371857062063E+02    0.36225E-07   -0.15347E-07 11864   0.861E-03    0.103E-03
DAV:   8    -0.371857061627E+02    0.43537E-07   -0.81973E-08 13156   0.252E-03    0.500E-04
DAV:   9    -0.371857061427E+02    0.20082E-07   -0.17731E-08  6580   0.173E-03    0.148E-04
DAV:  10    -0.371857061363E+02    0.63433E-08   -0.90550E-09  5992   0.791E-04
   6 F= -.37185706E+02 E0= -.37183316E+02  d E =-.562316E-04
 trial-energy change:   -0.000056  1 .order   -0.000060   -0.000081   -0.000039
 step:   2.1867(harm=  2.1867)  dis= 0.00178  next Energy=   -37.185728 (dE=-0.779E-04)
 bond charge predicted
       N       E                     dE             d eps       ncg     rms          rms(c)
DAV:   1    -0.371858756116E+02   -0.16947E-03   -0.24951E-02 10988   0.113E+00    0.116E-01
DAV:   2    -0.371857633997E+02    0.11221E-03   -0.17572E-03 11180   0.554E-01    0.533E-02
DAV:   3    -0.371857365789E+02    0.26821E-04   -0.15213E-04 14012   0.163E-01    0.269E-02
DAV:   4    -0.371857243769E+02    0.12202E-04   -0.29511E-05 14260   0.761E-02    0.756E-03
DAV:   5    -0.371857242945E+02    0.82402E-07   -0.98029E-06 10952   0.296E-02    0.252E-03
DAV:   6    -0.371857243913E+02   -0.96769E-07   -0.17277E-06 12044   0.121E-02    0.160E-03
DAV:   7    -0.371857243583E+02    0.32922E-07   -0.13133E-07 11772   0.798E-03    0.952E-04
DAV:   8    -0.371857243179E+02    0.40422E-07   -0.70492E-08 12892   0.233E-03    0.464E-04
DAV:   9    -0.371857242999E+02    0.18041E-07   -0.15129E-08  6192   0.161E-03    0.138E-04
DAV:  10    -0.371857242934E+02    0.64806E-08   -0.78825E-09  5980   0.756E-04
   7 F= -.37185724E+02 E0= -.37183287E+02  d E =-.743887E-04
 curvature:  -1.92 expect dE=-0.804E-04 dE for cont linesearch -0.810E-11
 trial: gam= 0.47108 g(F)=  0.283E-04 g(S)=  0.135E-04 ort =-0.230E-07 (trialstep = 0.135E+01)
 search vector abs. value=  0.696E-04
 bond charge predicted
       N       E                     dE             d eps       ncg     rms          rms(c)
DAV:   1    -0.371857538010E+02   -0.29501E-04   -0.22826E-02 10088   0.865E-01    0.578E-02
DAV:   2    -0.371857799885E+02   -0.26187E-04   -0.75266E-04 12156   0.259E-01    0.346E-02
DAV:   3    -0.371857666980E+02    0.13291E-04   -0.50281E-05 13096   0.837E-02    0.165E-02
DAV:   4    -0.371857621054E+02    0.45925E-05   -0.14171E-05 12048   0.434E-02    0.346E-03
DAV:   5    -0.371857623548E+02   -0.24934E-06   -0.45818E-06 10876   0.183E-02    0.185E-03
DAV:   6    -0.371857623793E+02   -0.24511E-07   -0.35664E-07 12024   0.494E-03    0.113E-03
DAV:   7    -0.371857623842E+02   -0.49508E-08   -0.61401E-08 12404   0.374E-03
   8 F= -.37185762E+02 E0= -.37183317E+02  d E =-.380908E-04
 trial-energy change:   -0.000038  1 .order   -0.000039   -0.000056   -0.000021
 step:   2.3283(harm=  2.1563)  dis= 0.00122  next Energy=   -37.185770 (dE=-0.456E-04)
 bond charge predicted
       N       E                     dE             d eps       ncg     rms          rms(c)
DAV:   1    -0.371857640060E+02   -0.16267E-05   -0.12170E-02 10084   0.631E-01    0.422E-02
DAV:   2    -0.371857778947E+02   -0.13889E-04   -0.40138E-04 12148   0.189E-01    0.253E-02
DAV:   3    -0.371857706985E+02    0.71961E-05   -0.26926E-05 13084   0.609E-02    0.120E-02
DAV:   4    -0.371857681847E+02    0.25138E-05   -0.76144E-06 12056   0.317E-02    0.256E-03
DAV:   5    -0.371857683111E+02   -0.12638E-06   -0.24598E-06 10864   0.135E-02    0.136E-03
DAV:   6    -0.371857683280E+02   -0.16882E-07   -0.19755E-07 12040   0.364E-03    0.834E-04
DAV:   7    -0.371857683322E+02   -0.41850E-08   -0.30392E-08  9400   0.264E-03
   9 F= -.37185768E+02 E0= -.37183317E+02  d E =-.440388E-04
 curvature:  -1.71 expect dE=-0.660E-04 dE for cont linesearch -0.234E-06
 trial: gam= 1.01795 g(F)=  0.294E-04 g(S)=  0.909E-05 ort =-0.308E-05 (trialstep = 0.103E+01)
 search vector abs. value=  0.104E-03
 bond charge predicted
       N       E                     dE             d eps       ncg     rms          rms(c)
DAV:   1    -0.371858305326E+02   -0.62205E-04   -0.19585E-02 10012   0.874E-01    0.771E-02
DAV:   2    -0.371858187837E+02    0.11749E-04   -0.10182E-03 11840   0.381E-01    0.383E-02
DAV:   3    -0.371858043829E+02    0.14401E-04   -0.72650E-05 13624   0.112E-01    0.195E-02
DAV:   4    -0.371857981355E+02    0.62474E-05   -0.16767E-05 13408   0.527E-02    0.400E-03
DAV:   5    -0.371857984515E+02   -0.31603E-06   -0.55379E-06 10712   0.225E-02    0.179E-03
DAV:   6    -0.371857984604E+02   -0.88648E-08   -0.57300E-07 12184   0.820E-03    0.132E-03
DAV:   7    -0.371857984313E+02    0.29052E-07   -0.60152E-08 10548   0.581E-03    0.725E-04
DAV:   8    -0.371857983958E+02    0.35587E-07   -0.28885E-08  8408   0.173E-03    0.231E-04
DAV:   9    -0.371857983921E+02    0.36530E-08   -0.11521E-08  6036   0.176E-03
  10 F= -.37185798E+02 E0= -.37183344E+02  d E =-.300599E-04
 trial-energy change:   -0.000030  1 .order   -0.000030   -0.000036   -0.000024
 step:   2.9526(harm=  2.9526)  dis= 0.00248  next Energy=   -37.185821 (dE=-0.522E-04)
 bond charge predicted
       N       E                     dE             d eps       ncg     rms          rms(c)
DAV:   1    -0.371859319300E+02   -0.13353E-03   -0.68526E-02 10012   0.163E+00    0.144E-01
DAV:   2    -0.371858904662E+02    0.41464E-04   -0.35573E-03 11852   0.712E-01    0.716E-02
DAV:   3    -0.371858389702E+02    0.51496E-04   -0.25299E-04 13700   0.211E-01    0.365E-02
DAV:   4    -0.371858164205E+02    0.22550E-04   -0.58299E-05 13388   0.987E-02    0.747E-03
DAV:   5    -0.371858174326E+02   -0.10120E-05   -0.19356E-05 10704   0.423E-02    0.330E-03
DAV:   6    -0.371858175062E+02   -0.73616E-07   -0.20142E-06 12184   0.155E-02    0.247E-03
DAV:   7    -0.371858174437E+02    0.62539E-07   -0.21431E-07 12148   0.108E-02    0.135E-03
DAV:   8    -0.371858173779E+02    0.65741E-07   -0.11097E-07 13996   0.325E-03    0.414E-04
DAV:   9    -0.371858173703E+02    0.76611E-08   -0.28337E-08  7764   0.284E-03
  11 F= -.37185817E+02 E0= -.37183357E+02  d E =-.490381E-04
 curvature:  -4.35 expect dE=-0.338E-03 dE for cont linesearch -0.478E-07
 trial: gam= 1.87591 g(F)=  0.452E-04 g(S)=  0.324E-04 ort =-0.107E-05 (trialstep = 0.335E+00)
 search vector abs. value=  0.441E-03
 bond charge predicted
       N       E                     dE             d eps       ncg     rms          rms(c)
DAV:   1    -0.371858364971E+02   -0.19119E-04   -0.92995E-03  9952   0.513E-01    0.345E-02
DAV:   2    -0.371858459809E+02   -0.94838E-05   -0.25913E-04 11900   0.131E-01    0.197E-02
DAV:   3    -0.371858397842E+02    0.61966E-05   -0.12848E-05 14444   0.409E-02    0.802E-03
DAV:   4    -0.371858389183E+02    0.86594E-06   -0.41469E-06 12020   0.231E-02    0.181E-03
DAV:   5    -0.371858390101E+02   -0.91793E-07   -0.10138E-06 11668   0.123E-02    0.107E-03
DAV:   6    -0.371858390216E+02   -0.11535E-07   -0.13100E-07 11012   0.526E-03    0.720E-04
DAV:   7    -0.371858390329E+02   -0.11246E-07   -0.22095E-08  7500   0.289E-03    0.296E-04
DAV:   8    -0.371858390421E+02   -0.92559E-08   -0.11456E-08  6060   0.136E-03
  12 F= -.37185839E+02 E0= -.37183358E+02  d E =-.216719E-04
 ZBRENT: can't locate minimum, use default step
 trial-energy change:   -0.000022  1 .order   -0.000022   -0.000025   -0.000019
 step:   1.3383(harm=  1.3833)  dis= 0.00254  next Energy=   -37.185870 (dE=-0.523E-04)
 bond charge predicted
       N       E                     dE             d eps       ncg     rms          rms(c)
DAV:   1    -0.371858444476E+02   -0.54148E-05   -0.83692E-02  9948   0.154E+00    0.104E-01
DAV:   2    -0.371859312969E+02   -0.86849E-04   -0.23536E-03 11872   0.394E-01    0.590E-02
DAV:   3    -0.371858767237E+02    0.54573E-04   -0.11738E-04 14400   0.124E-01    0.241E-02
DAV:   4    -0.371858689256E+02    0.77981E-05   -0.37696E-05 12000   0.700E-02    0.548E-03
DAV:   5    -0.371858695853E+02   -0.65968E-06   -0.92661E-06 11680   0.373E-02    0.321E-03
DAV:   6    -0.371858696352E+02   -0.49965E-07   -0.12069E-06 11624   0.159E-02    0.217E-03
DAV:   7    -0.371858696632E+02   -0.27968E-07   -0.23944E-07 13500   0.868E-03    0.892E-04
DAV:   8    -0.371858696930E+02   -0.29821E-07   -0.79472E-08 11568   0.382E-03    0.294E-04
DAV:   9    -0.371858696961E+02   -0.30545E-08   -0.26380E-08  8136   0.129E-03
  13 F= -.37185870E+02 E0= -.37183324E+02  d E =-.523258E-04
 curvature:  -4.03 expect dE=-0.160E-03 dE for cont linesearch -0.128E-06
 trial: gam= 0.47020 g(F)=  0.236E-04 g(S)=  0.161E-04 ort = 0.374E-05 (trialstep = 0.535E+00)
 search vector abs. value=  0.141E-03
 bond charge predicted
       N       E                     dE             d eps       ncg     rms          rms(c)
DAV:   1    -0.371858850857E+02   -0.15393E-04   -0.78081E-03 10000   0.490E-01    0.339E-02
DAV:   2    -0.371858938428E+02   -0.87570E-05   -0.26468E-04 12480   0.150E-01    0.189E-02
DAV:   3    -0.371858895552E+02    0.42876E-05   -0.12780E-05 13416   0.477E-02    0.918E-03
DAV:   4    -0.371858880871E+02    0.14681E-05   -0.39446E-06 12928   0.280E-02    0.162E-03
DAV:   5    -0.371858881664E+02   -0.79305E-07   -0.13609E-06 10692   0.128E-02    0.111E-03
DAV:   6    -0.371858881735E+02   -0.71095E-08   -0.13055E-07 11772   0.560E-03    0.706E-04
DAV:   7    -0.371858881847E+02   -0.11227E-07   -0.21630E-08  7184   0.277E-03    0.263E-04
DAV:   8    -0.371858881948E+02   -0.10075E-07   -0.11215E-08  6040   0.133E-03    0.990E-05
DAV:   9    -0.371858881956E+02   -0.75215E-09   -0.39117E-09  5836   0.624E-04
  14 F= -.37185888E+02 E0= -.37183323E+02  d E =-.184995E-04
 trial-energy change:   -0.000018  1 .order   -0.000019   -0.000022   -0.000015
 step:   1.8292(harm=  1.6169)  dis= 0.00217  next Energy=   -37.185905 (dE=-0.356E-04)
 bond charge predicted
       N       E                     dE             d eps       ncg     rms          rms(c)
DAV:   1    -0.371858833876E+02    0.48072E-05   -0.45626E-02  9996   0.118E+00    0.820E-02
DAV:   2    -0.371859344707E+02   -0.51083E-04   -0.15484E-03 12472   0.362E-01    0.456E-02
DAV:   3    -0.371859102236E+02    0.24247E-04   -0.75007E-05 13420   0.116E-01    0.222E-02
DAV:   4    -0.371859020668E+02    0.81568E-05   -0.23078E-05 12992   0.678E-02    0.391E-03
DAV:   5    -0.371859025857E+02   -0.51883E-06   -0.79388E-06 10704   0.312E-02    0.269E-03
DAV:   6    -0.371859026133E+02   -0.27596E-07   -0.77289E-07 12260   0.136E-02    0.171E-03
DAV:   7    -0.371859026345E+02   -0.21227E-07   -0.15152E-07 13164   0.673E-03    0.628E-04
DAV:   8    -0.371859026585E+02   -0.24025E-07   -0.51732E-08 10852   0.299E-03    0.232E-04
DAV:   9    -0.371859026618E+02   -0.32805E-08   -0.11345E-08  6084   0.995E-04
  15 F= -.37185903E+02 E0= -.37183288E+02  d E =-.329657E-04
 curvature:  -2.63 expect dE=-0.692E-04 dE for cont linesearch -0.510E-06
 trial: gam= 0.88464 g(F)=  0.205E-04 g(S)=  0.575E-05 ort =-0.522E-05 (trialstep = 0.794E+00)
 search vector abs. value=  0.127E-03
 bond charge predicted
       N       E                     dE             d eps       ncg     rms          rms(c)
DAV:   1    -0.371858942544E+02    0.84041E-05   -0.15953E-02  9924   0.671E-01    0.381E-02
DAV:   2    -0.371859209676E+02   -0.26713E-04   -0.43593E-04 12512   0.155E-01    0.210E-02
DAV:   3    -0.371859151028E+02    0.58648E-05   -0.15022E-05 14096   0.425E-02    0.938E-03
DAV:   4    -0.371859139367E+02    0.11660E-05   -0.40275E-06 12344   0.302E-02    0.187E-03
DAV:   5    -0.371859140509E+02   -0.11418E-06   -0.13112E-06 11084   0.144E-02    0.123E-03
DAV:   6    -0.371859140610E+02   -0.10096E-07   -0.15872E-07 12008   0.517E-03    0.775E-04
DAV:   7    -0.371859140704E+02   -0.93601E-08   -0.41877E-08 10040   0.303E-03
  16 F= -.37185914E+02 E0= -.37183288E+02  d E =-.114086E-04
 trial-energy change:   -0.000011  1 .order   -0.000011   -0.000017   -0.000005
 step:   1.0800(harm=  1.1289)  dis= 0.00134  next Energy=   -37.185915 (dE=-0.123E-04)
 bond charge predicted
       N       E                     dE             d eps       ncg     rms          rms(c)
DAV:   1    -0.371859125802E+02    0.14808E-05   -0.20685E-03  9932   0.242E-01    0.137E-02
DAV:   2    -0.371859160692E+02   -0.34889E-05   -0.56468E-05 12524   0.553E-02    0.755E-03
DAV:   3    -0.371859153219E+02    0.74729E-06   -0.19373E-06 13964   0.139E-02    0.334E-03
DAV:   4    -0.371859151892E+02    0.13272E-06   -0.49794E-07 12168   0.964E-03    0.650E-04
DAV:   5    -0.371859152080E+02   -0.18865E-07   -0.16302E-07 11136   0.484E-03    0.443E-04
DAV:   6    -0.371859152102E+02   -0.21514E-08   -0.16687E-08  6980   0.188E-03
  17 F= -.37185915E+02 E0= -.37183284E+02  d E =-.125484E-04
 curvature:  -3.24 expect dE=-0.357E-04 dE for cont linesearch -0.106E-07
 trial: gam= 0.09283 g(F)=  0.865E-05 g(S)=  0.236E-05 ort = 0.646E-06 (trialstep = 0.851E+00)
 search vector abs. value=  0.122E-04
 bond charge predicted
       N       E                     dE             d eps       ncg     rms          rms(c)
DAV:   1    -0.371859284527E+02   -0.13245E-04   -0.18411E-03 10976   0.323E-01    0.299E-02
DAV:   2    -0.371859233536E+02    0.50991E-05   -0.15622E-04 11460   0.161E-01    0.135E-02
DAV:   3    -0.371859225350E+02    0.81860E-06   -0.11815E-05 14288   0.454E-02    0.653E-03
DAV:   4    -0.371859220008E+02    0.53418E-06   -0.18550E-06 14624   0.174E-02    0.221E-03
DAV:   5    -0.371859220459E+02   -0.45104E-07   -0.64708E-07 11128   0.694E-03    0.675E-04
DAV:   6    -0.371859220392E+02    0.67052E-08   -0.77548E-08 10740   0.321E-03
  18 F= -.37185922E+02 E0= -.37183289E+02  d E =-.682900E-05
 trial-energy change:   -0.000007  1 .order   -0.000007   -0.000009   -0.000004
 step:   1.4387(harm=  1.5092)  dis= 0.00037  next Energy=   -37.185923 (dE=-0.827E-05)
 bond charge predicted
       N       E                     dE             d eps       ncg     rms          rms(c)
DAV:   1    -0.371859266996E+02   -0.46537E-05   -0.87717E-04 10972   0.223E-01    0.207E-02
DAV:   2    -0.371859241957E+02    0.25039E-05   -0.74357E-05 11488   0.111E-01    0.933E-03
DAV:   3    -0.371859238495E+02    0.34620E-06   -0.56672E-06 14304   0.314E-02    0.451E-03
DAV:   4    -0.371859236248E+02    0.22469E-06   -0.88262E-07 14644   0.121E-02    0.153E-03
DAV:   5    -0.371859236572E+02   -0.32450E-07   -0.30824E-07 11112   0.485E-03    0.469E-04
DAV:   6    -0.371859236517E+02    0.55716E-08   -0.37375E-08  9556   0.224E-03
  19 F= -.37185924E+02 E0= -.37183290E+02  d E =-.844147E-05
 curvature:  -0.82 expect dE=-0.432E-05 dE for cont linesearch -0.249E-07
 trial: gam= 0.43577 g(F)=  0.411E-05 g(S)=  0.114E-05 ort = 0.608E-06 (trialstep = 0.969E+00)
 search vector abs. value=  0.810E-05
 bond charge predicted
       N       E                     dE             d eps       ncg     rms          rms(c)
DAV:   1    -0.371859264661E+02   -0.28089E-05   -0.16121E-03  9872   0.228E-01    0.139E-02
DAV:   2    -0.371859284787E+02   -0.20126E-05   -0.49114E-05 11592   0.650E-02    0.763E-03
DAV:   3    -0.371859278860E+02    0.59277E-06   -0.34446E-06 11936   0.209E-02    0.399E-03
DAV:   4    -0.371859275602E+02    0.32578E-06   -0.82556E-07 13216   0.115E-02    0.902E-04
DAV:   5    -0.371859275567E+02    0.34443E-08   -0.26397E-07 10780   0.483E-03    0.457E-04
DAV:   6    -0.371859275581E+02   -0.13151E-08   -0.21091E-08  7004   0.203E-03
  20 F= -.37185928E+02 E0= -.37183301E+02  d E =-.390640E-05
 trial-energy change:   -0.000004  1 .order   -0.000004   -0.000005   -0.000003
 step:   1.9811(harm=  1.9811)  dis= 0.00044  next Energy=   -37.185929 (dE=-0.546E-05)
 bond charge predicted
       N       E                     dE             d eps       ncg     rms          rms(c)
DAV:   1    -0.371859277505E+02   -0.19374E-06   -0.17611E-03  9872   0.238E-01    0.146E-02
DAV:   2    -0.371859299506E+02   -0.22001E-05   -0.53606E-05 11584   0.683E-02    0.799E-03
DAV:   3    -0.371859293147E+02    0.63590E-06   -0.37895E-06 11916   0.221E-02    0.417E-03
DAV:   4    -0.371859289668E+02    0.34791E-06   -0.89067E-07 13224   0.121E-02    0.936E-04
DAV:   5    -0.371859289657E+02    0.10646E-08   -0.28712E-07 10792   0.527E-03    0.487E-04
DAV:   6    -0.371859289678E+02   -0.21214E-08   -0.28900E-08  8644   0.236E-03
  21 F= -.37185929E+02 E0= -.37183309E+02  d E =-.531616E-05
 curvature:  -1.46 expect dE=-0.622E-05 dE for cont linesearch -0.218E-08
 trial: gam= 0.87379 g(F)=  0.292E-05 g(S)=  0.135E-05 ort = 0.110E-06 (trialstep = 0.891E+00)
 search vector abs. value=  0.107E-04
 bond charge predicted
       N       E                     dE             d eps       ncg     rms          rms(c)
DAV:   1    -0.371859324554E+02   -0.34897E-05   -0.17309E-03  9860   0.238E-01    0.162E-02
DAV:   2    -0.371859335725E+02   -0.11172E-05   -0.54011E-05 11796   0.780E-02    0.836E-03
DAV:   3    -0.371859325550E+02    0.10175E-05   -0.46629E-06 12524   0.249E-02    0.428E-03
DAV:   4    -0.371859321671E+02    0.38784E-06   -0.10598E-06 12048   0.124E-02    0.801E-04
DAV:   5    -0.371859321942E+02   -0.27099E-07   -0.31224E-07 10956   0.555E-03    0.528E-04
DAV:   6    -0.371859321986E+02   -0.43510E-08   -0.28939E-08  8396   0.251E-03
  22 F= -.37185932E+02 E0= -.37183305E+02  d E =-.323076E-05
 trial-energy change:   -0.000003  1 .order   -0.000003   -0.000004   -0.000002
 step:   2.4828(harm=  2.4828)  dis= 0.00076  next Energy=   -37.185934 (dE=-0.543E-05)
 bond charge predicted
       N       E                     dE             d eps       ncg     rms          rms(c)
DAV:   1    -0.371859353163E+02   -0.31221E-05   -0.55307E-03  9860   0.426E-01    0.290E-02
DAV:   2    -0.371859387997E+02   -0.34833E-05   -0.17269E-04 11800   0.139E-01    0.150E-02
DAV:   3    -0.371859357153E+02    0.30843E-05   -0.14885E-05 12520   0.445E-02    0.766E-03
DAV:   4    -0.371859345535E+02    0.11618E-05   -0.34070E-06 12020   0.221E-02    0.142E-03
DAV:   5    -0.371859346345E+02   -0.80975E-07   -0.10064E-06 10952   0.981E-03    0.945E-04
DAV:   6    -0.371859346419E+02   -0.73642E-08   -0.95430E-08 12008   0.445E-03
  23 F= -.37185935E+02 E0= -.37183295E+02  d E =-.567404E-05
 curvature:  -3.03 expect dE=-0.263E-04 dE for cont linesearch -0.328E-08
 trial: gam= 2.01200 g(F)=  0.586E-05 g(S)=  0.283E-05 ort = 0.108E-06 (trialstep = 0.247E+00)
 search vector abs. value=  0.522E-04
 bond charge predicted
       N       E                     dE             d eps       ncg     rms          rms(c)
DAV:   1    -0.371859361487E+02   -0.15142E-05   -0.68187E-04  9880   0.147E-01    0.774E-03
DAV:   2    -0.371859369577E+02   -0.80897E-06   -0.17352E-05 10876   0.366E-02    0.415E-03
DAV:   3    -0.371859368515E+02    0.10620E-06   -0.10672E-06 13240   0.117E-02    0.216E-03
DAV:   4    -0.371859368022E+02    0.49299E-07   -0.26152E-07 11964   0.620E-03    0.561E-04
DAV:   5    -0.371859368131E+02   -0.10914E-07   -0.84265E-08 10704   0.259E-03    0.264E-04
DAV:   6    -0.371859368097E+02    0.33824E-08   -0.55318E-09  5960   0.808E-04
  24 F= -.37185937E+02 E0= -.37183295E+02  d E =-.216788E-05
 ZBRENT: can't locate minimum, use default step
 trial-energy change:   -0.000002  1 .order   -0.000002   -0.000002   -0.000002
 step:   0.9863(harm=  2.7768)  dis= 0.00070  next Energy=   -37.185947 (dE=-0.124E-04)
 bond charge predicted
       N       E                     dE             d eps       ncg     rms          rms(c)
DAV:   1    -0.371859364120E+02    0.40107E-06   -0.61282E-03  9880   0.440E-01    0.232E-02
DAV:   2    -0.371859435616E+02   -0.71495E-05   -0.15374E-04 10884   0.109E-01    0.123E-02
DAV:   3    -0.371859422708E+02    0.12908E-05   -0.95347E-06 13252   0.341E-02    0.642E-03
DAV:   4    -0.371859416802E+02    0.59058E-06   -0.23277E-06 12008   0.183E-02    0.167E-03
DAV:   5    -0.371859417392E+02   -0.58915E-07   -0.75806E-07 10916   0.742E-03    0.798E-04
DAV:   6    -0.371859417263E+02    0.12857E-07   -0.49288E-08 11008   0.205E-03    0.460E-04
DAV:   7    -0.371859417133E+02    0.12962E-07   -0.13434E-08  6724   0.147E-03    0.144E-04
DAV:   8    -0.371859417116E+02    0.17362E-08   -0.57694E-09  5952   0.109E-03
  25 F= -.37185942E+02 E0= -.37183294E+02  d E =-.706975E-05
 curvature:  -4.07 expect dE=-0.157E-04 dE for cont linesearch -0.203E-05
 ZBRENT: increasing intervall
 opt :   2.4657  next Energy=   -37.185945 (dE=-0.102E-04)
 bond charge predicted
       N       E                     dE             d eps       ncg     rms          rms(c)
DAV:   1    -0.371859206468E+02    0.21066E-04   -0.24504E-02  9880   0.880E-01    0.463E-02
DAV:   2    -0.371859492317E+02   -0.28585E-04   -0.61364E-04 10868   0.218E-01    0.246E-02
DAV:   3    -0.371859437855E+02    0.54462E-05   -0.38176E-05 13284   0.679E-02    0.128E-02
DAV:   4    -0.371859413125E+02    0.24730E-05   -0.92420E-06 12024   0.366E-02    0.335E-03
DAV:   5    -0.371859415138E+02   -0.20130E-06   -0.30285E-06 10908   0.148E-02    0.160E-03
DAV:   6    -0.371859414836E+02    0.30219E-07   -0.19779E-07 12324   0.409E-03    0.919E-04
DAV:   7    -0.371859414566E+02    0.26950E-07   -0.62545E-08 11460   0.275E-03    0.294E-04
DAV:   8    -0.371859414537E+02    0.29268E-08   -0.18126E-08  8000   0.173E-03
  26 F= -.37185941E+02 E0= -.37183281E+02  d E =-.681182E-05
 curvature:  -6.24 expect dE=-0.702E-04 dE for cont linesearch -0.950E-07
 trial: gam= 1.53569 g(F)=  0.723E-05 g(S)=  0.402E-05 ort =-0.892E-06 (trialstep = 0.274E+00)
 search vector abs. value=  0.132E-03
 bond charge predicted
       N       E                     dE             d eps       ncg     rms          rms(c)
DAV:   1    -0.371859420902E+02   -0.63359E-06   -0.21193E-03  9860   0.255E-01    0.133E-02
DAV:   2    -0.371859446163E+02   -0.25261E-05   -0.51110E-05 10992   0.611E-02    0.697E-03
DAV:   3    -0.371859440349E+02    0.58142E-06   -0.31586E-06 12544   0.192E-02    0.362E-03
DAV:   4    -0.371859438054E+02    0.22951E-06   -0.78883E-07 13060   0.106E-02    0.835E-04
DAV:   5    -0.371859438142E+02   -0.87989E-08   -0.25969E-07 10792   0.437E-03    0.468E-04
DAV:   6    -0.371859438185E+02   -0.43578E-08   -0.13546E-08  6184   0.108E-03
  27 F= -.37185944E+02 E0= -.37183284E+02  d E =-.236486E-05
 ZBRENT: can't locate minimum, use default step
 trial-energy change:   -0.000002  1 .order   -0.000002   -0.000003   -0.000002
 step:   1.0953(harm=  1.1500)  dis= 0.00125  next Energy=   -37.185947 (dE=-0.568E-05)
 bond charge predicted
       N       E                     dE             d eps       ncg     rms          rms(c)
DAV:   1    -0.371859321417E+02    0.11672E-04   -0.19089E-02  9856   0.765E-01    0.399E-02
DAV:   2    -0.371859547741E+02   -0.22632E-04   -0.46183E-04 10996   0.184E-01    0.209E-02
DAV:   3    -0.371859500770E+02    0.46971E-05   -0.28611E-05 12528   0.578E-02    0.109E-02
DAV:   4    -0.371859481200E+02    0.19570E-05   -0.70995E-06 13072   0.319E-02    0.251E-03
DAV:   5    -0.371859482526E+02   -0.13265E-06   -0.23367E-06 10784   0.131E-02    0.140E-03
DAV:   6    -0.371859482598E+02   -0.71973E-08   -0.14613E-07 12776   0.328E-03    0.778E-04
DAV:   7    -0.371859482680E+02   -0.81391E-08   -0.34735E-08 10032   0.179E-03
  28 F= -.37185948E+02 E0= -.37183289E+02  d E =-.681430E-05
 curvature:  -7.64 expect dE=-0.562E-04 dE for cont linesearch -0.577E-06
 ZBRENT: increasing intervall
 opt :   2.7383  next Energy=   -37.185946 (dE=-0.481E-05)
 bond charge predicted
       N       E                     dE             d eps       ncg     rms          rms(c)
DAV:   1    -0.371858800714E+02    0.68188E-04   -0.76339E-02  9856   0.153E+00    0.798E-02
DAV:   2    -0.371859704563E+02   -0.90385E-04   -0.18480E-03 10996   0.369E-01    0.418E-02
DAV:   3    -0.371859522474E+02    0.18209E-04   -0.11503E-04 12536   0.116E-01    0.217E-02
DAV:   4    -0.371859445174E+02    0.77300E-05   -0.28498E-05 13056   0.638E-02    0.501E-03
DAV:   5    -0.371859450979E+02   -0.58046E-06   -0.93609E-06 10788   0.260E-02    0.279E-03
DAV:   6    -0.371859450925E+02    0.53687E-08   -0.57382E-07 12752   0.649E-03    0.156E-03
DAV:   7    -0.371859451030E+02   -0.10457E-07   -0.14335E-07 11508   0.352E-03    0.524E-04
DAV:   8    -0.371859451181E+02   -0.15142E-07   -0.39905E-08 10200   0.208E-03    0.250E-04
DAV:   9    -0.371859451201E+02   -0.19763E-08   -0.75448E-09  6040   0.858E-04
  29 F= -.37185945E+02 E0= -.37183287E+02  d E =-.366641E-05
 curvature:  26.48 expect dE= 0.641E-03 dE for cont linesearch  0.884E-05
 ZBRENT: bracketing found
 ZBRENT: interpolating
 opt :   1.6249  next Energy=   -37.185949 (dE=-0.765E-05)
 bond charge predicted
       N       E                     dE             d eps       ncg     rms          rms(c)
DAV:   1    -0.371859191285E+02    0.25990E-04   -0.35056E-02  9856   0.104E+00    0.541E-02
DAV:   2    -0.371859600713E+02   -0.40943E-04   -0.84482E-04 11000   0.247E-01    0.283E-02
DAV:   3    -0.371859521855E+02    0.78858E-05   -0.51634E-05 12500   0.769E-02    0.147E-02
DAV:   4    -0.371859487759E+02    0.34096E-05   -0.12894E-05 13048   0.431E-02    0.339E-03
DAV:   5    -0.371859490938E+02   -0.31791E-06   -0.42603E-06 10788   0.179E-02    0.189E-03
DAV:   6    -0.371859490546E+02    0.39272E-07   -0.27681E-07 12688   0.455E-03    0.106E-03
DAV:   7    -0.371859490333E+02    0.21227E-07   -0.65116E-08 11364   0.248E-03    0.368E-04
DAV:   8    -0.371859490252E+02    0.81250E-08   -0.17127E-08  7964   0.150E-03
  30 F= -.37185949E+02 E0= -.37183290E+02  d E =-.757154E-05
 curvature:  -2.50 expect dE=-0.244E-04 dE for cont linesearch -0.339E-10
 trial: gam= 0.52759 g(F)=  0.523E-05 g(S)=  0.451E-05 ort = 0.422E-07 (trialstep = 0.544E+00)
 search vector abs. value=  0.464E-04
 bond charge predicted
       N       E                     dE             d eps       ncg     rms          rms(c)
DAV:   1    -0.371859537402E+02   -0.47069E-05   -0.28121E-03  9856   0.292E-01    0.189E-02
DAV:   2    -0.371859557797E+02   -0.20395E-05   -0.74072E-05 11604   0.731E-02    0.106E-02
DAV:   3    -0.371859539695E+02    0.18102E-05   -0.44434E-06 12424   0.233E-02    0.463E-03
DAV:   4    -0.371859535916E+02    0.37785E-06   -0.14407E-06 12880   0.147E-02    0.952E-04
DAV:   5    -0.371859536189E+02   -0.27275E-07   -0.44516E-07 10796   0.633E-03    0.637E-04
DAV:   6    -0.371859536196E+02   -0.66439E-09   -0.26828E-08  8176   0.251E-03
  31 F= -.37185954E+02 E0= -.37183298E+02  d E =-.459435E-05
 ZBRENT: can't locate minimum, use default step
 trial-energy change:   -0.000005  1 .order   -0.000005   -0.000005   -0.000004
 step:   2.1762(harm=  2.1793)  dis= 0.00136  next Energy=   -37.185960 (dE=-0.106E-04)
 bond charge predicted
       N       E                     dE             d eps       ncg     rms          rms(c)
DAV:   1    -0.371859607698E+02   -0.71509E-05   -0.25313E-02  9856   0.877E-01    0.567E-02
DAV:   2    -0.371859790239E+02   -0.18254E-04   -0.66709E-04 11612   0.220E-01    0.318E-02
DAV:   3    -0.371859634767E+02    0.15547E-04   -0.40250E-05 12336   0.715E-02    0.139E-02
DAV:   4    -0.371859602019E+02    0.32748E-05   -0.13203E-05 12880   0.455E-02    0.285E-03
DAV:   5    -0.371859604895E+02   -0.28761E-06   -0.40468E-06 10808   0.199E-02    0.195E-03
DAV:   6    -0.371859604838E+02    0.56998E-08   -0.30269E-07 12340   0.859E-03    0.112E-03
DAV:   7    -0.371859604855E+02   -0.16635E-08   -0.86705E-08 11460   0.487E-03
  32 F= -.37185960E+02 E0= -.37183314E+02  d E =-.114603E-04
 curvature:  -5.18 expect dE=-0.446E-04 dE for cont linesearch -0.142E-06
 trial: gam= 0.82608 g(F)=  0.738E-05 g(S)=  0.123E-05 ort = 0.113E-05 (trialstep = 0.870E+00)
 search vector abs. value=  0.422E-04
 bond charge predicted
       N       E                     dE             d eps       ncg     rms          rms(c)
DAV:   1    -0.371859656360E+02   -0.51521E-05   -0.65911E-03  9868   0.459E-01    0.291E-02
DAV:   2    -0.371859702704E+02   -0.46344E-05   -0.18028E-04 11788   0.129E-01    0.158E-02
DAV:   3    -0.371859678493E+02    0.24210E-05   -0.14150E-05 12972   0.427E-02    0.793E-03
DAV:   4    -0.371859669068E+02    0.94259E-06   -0.31499E-06 12776   0.225E-02    0.160E-03
DAV:   5    -0.371859670147E+02   -0.10791E-06   -0.10923E-06 10776   0.861E-03    0.862E-04
DAV:   6    -0.371859670061E+02    0.85893E-08   -0.63371E-08 11732   0.245E-03
  33 F= -.37185967E+02 E0= -.37183349E+02  d E =-.652059E-05
 trial-energy change:   -0.000007  1 .order   -0.000006   -0.000008   -0.000004
 step:   1.4347(harm=  1.7759)  dis= 0.00080  next Energy=   -37.185968 (dE=-0.796E-05)
 bond charge predicted
       N       E                     dE             d eps       ncg     rms          rms(c)
DAV:   1    -0.371859684357E+02   -0.14210E-05   -0.27711E-03  9864   0.298E-01    0.189E-02
DAV:   2    -0.371859703637E+02   -0.19280E-05   -0.75773E-05 11764   0.836E-02    0.103E-02
DAV:   3    -0.371859694044E+02    0.95925E-06   -0.59541E-06 12992   0.279E-02    0.515E-03
DAV:   4    -0.371859690418E+02    0.36266E-06   -0.13249E-06 12796   0.147E-02    0.103E-03
DAV:   5    -0.371859690920E+02   -0.50185E-07   -0.45602E-07 10776   0.570E-03    0.559E-04
DAV:   6    -0.371859690879E+02    0.40932E-08   -0.26615E-08  8460   0.191E-03
  34 F= -.37185969E+02 E0= -.37183369E+02  d E =-.860238E-05
 curvature:  -3.37 expect dE=-0.996E-05 dE for cont linesearch -0.285E-06
 ZBRENT: increasing intervall
 opt :   2.5632  next Energy=   -37.185968 (dE=-0.737E-05)
 bond charge predicted
       N       E                     dE             d eps       ncg     rms          rms(c)
DAV:   1    -0.371859693349E+02   -0.24296E-06   -0.11080E-02  9864   0.595E-01    0.378E-02
DAV:   2    -0.371859771042E+02   -0.77692E-05   -0.30212E-04 11780   0.167E-01    0.205E-02
DAV:   3    -0.371859729276E+02    0.41766E-05   -0.23689E-05 12984   0.555E-02    0.103E-02
DAV:   4    -0.371859712925E+02    0.16351E-05   -0.52631E-06 12752   0.293E-02    0.206E-03
DAV:   5    -0.371859714614E+02   -0.16894E-06   -0.18225E-06 10784   0.113E-02    0.111E-03
DAV:   6    -0.371859714500E+02    0.11443E-07   -0.10961E-07 12452   0.352E-03    0.635E-04
DAV:   7    -0.371859714412E+02    0.88112E-08   -0.21351E-08  7116   0.294E-03
  35 F= -.37185971E+02 E0= -.37183406E+02  d E =-.109557E-04
 curvature:  14.53 expect dE= 0.195E-03 dE for cont linesearch  0.578E-05
 ZBRENT: bracketing found
 ZBRENT: interpolating
 opt :   1.7909  next Energy=   -37.185969 (dE=-0.894E-05)
 bond charge predicted
       N       E                     dE             d eps       ncg     rms          rms(c)
DAV:   1    -0.371859690007E+02    0.24493E-05   -0.51858E-03  9864   0.408E-01    0.259E-02
DAV:   2    -0.371859727994E+02   -0.37987E-05   -0.14167E-04 11780   0.115E-01    0.140E-02
DAV:   3    -0.371859704680E+02    0.23314E-05   -0.11131E-05 12996   0.381E-02    0.702E-03
DAV:   4    -0.371859694861E+02    0.98193E-06   -0.24523E-06 12792   0.200E-02    0.141E-03
DAV:   5    -0.371859695252E+02   -0.39108E-07   -0.84347E-07 10792   0.762E-03    0.751E-04
DAV:   6    -0.371859695267E+02   -0.15621E-08   -0.49758E-08 11132   0.237E-03
  36 F= -.37185970E+02 E0= -.37183380E+02  d E =-.904123E-05
 curvature:  -0.85 expect dE=-0.408E-05 dE for cont linesearch -0.353E-08
 trial: gam= 0.73176 g(F)=  0.254E-05 g(S)=  0.229E-05 ort = 0.420E-06 (trialstep = 0.105E+01)
 search vector abs. value=  0.280E-04
 bond charge predicted
       N       E                     dE             d eps       ncg     rms          rms(c)
DAV:   1    -0.371859780871E+02   -0.85619E-05   -0.62469E-03  9876   0.435E-01    0.268E-02
DAV:   2    -0.371859808073E+02   -0.27202E-05   -0.13370E-04 11248   0.935E-02    0.153E-02
DAV:   3    -0.371859765710E+02    0.42362E-05   -0.92600E-06 14212   0.258E-02    0.540E-03
DAV:   4    -0.371859762804E+02    0.29067E-06   -0.26201E-06 10912   0.125E-02    0.134E-03
DAV:   5    -0.371859763222E+02   -0.41845E-07   -0.50511E-07 11932   0.763E-03    0.836E-04
DAV:   6    -0.371859763243E+02   -0.20418E-08   -0.59983E-08 10216   0.450E-03
  37 F= -.37185976E+02 E0= -.37183385E+02  d E =-.679755E-05
 trial-energy change:   -0.000007  1 .order   -0.000004   -0.000005   -0.000002
 step:   1.1298(harm=  1.5528)  dis= 0.00052  next Energy=   -37.185976 (dE=-0.686E-05)
 bond charge predicted
       N       E                     dE             d eps       ncg     rms          rms(c)
DAV:   1    -0.371859764597E+02   -0.13752E-06   -0.31987E-05  9952   0.312E-02    0.195E-03
DAV:   2    -0.371859764783E+02   -0.18542E-07   -0.72052E-07 10980   0.678E-03    0.111E-03
DAV:   3    -0.371859764561E+02    0.22222E-07   -0.40502E-08 11528   0.305E-03    0.435E-04
DAV:   4    -0.371859764565E+02   -0.47748E-09   -0.20064E-08  6672   0.196E-03
  38 F= -.37185976E+02 E0= -.37183385E+02  d E =-.692982E-05
 curvature:  -1.18 expect dE=-0.207E-05 dE for cont linesearch -0.121E-06
 ZBRENT: increasing intervall
 opt :   1.2802  next Energy=   -37.185977 (dE=-0.719E-05)
 bond charge predicted
       N       E                     dE             d eps       ncg     rms          rms(c)
DAV:   1    -0.371859766897E+02   -0.23359E-06   -0.12702E-04  9884   0.621E-02    0.382E-03
DAV:   2    -0.371859767496E+02   -0.59948E-07   -0.27272E-06 11256   0.135E-02    0.218E-03
DAV:   3    -0.371859766658E+02    0.83753E-07   -0.18825E-07 14640   0.460E-03    0.796E-04
DAV:   4    -0.371859766636E+02    0.22933E-08   -0.56310E-08 10664   0.295E-03
  39 F= -.37185977E+02 E0= -.37183385E+02  d E =-.713683E-05
 curvature:  -2.56 expect dE=-0.457E-05 dE for cont linesearch -0.143E-06
 ZBRENT: increasing intervall
 opt :   1.5810  next Energy=   -37.185977 (dE=-0.738E-05)
 bond charge predicted
       N       E                     dE             d eps       ncg     rms          rms(c)
DAV:   1    -0.371859770064E+02   -0.34058E-06   -0.50840E-04  9876   0.124E-01    0.767E-03
DAV:   2    -0.371859772334E+02   -0.22699E-06   -0.10897E-05 11224   0.269E-02    0.437E-03
DAV:   3    -0.371859768940E+02    0.33937E-06   -0.76365E-07 14568   0.882E-03    0.158E-03
DAV:   4    -0.371859768759E+02    0.18192E-07   -0.22493E-07 11108   0.551E-03    0.433E-04
DAV:   5    -0.371859768816E+02   -0.57180E-08   -0.52129E-08 10596   0.308E-03
  40 F= -.37185977E+02 E0= -.37183385E+02  d E =-.735485E-05
 curvature:  -4.35 expect dE=-0.966E-05 dE for cont linesearch -0.871E-08
 trial: gam= 0.34587 g(F)=  0.166E-05 g(S)=  0.565E-06 ort = 0.237E-06 (trialstep = 0.116E+01)
 search vector abs. value=  0.574E-05
 bond charge predicted
       N       E                     dE             d eps       ncg     rms          rms(c)
DAV:   1    -0.371859801736E+02   -0.32978E-05   -0.14640E-03  9904   0.224E-01    0.174E-02
DAV:   2    -0.371859803059E+02   -0.13229E-06   -0.49805E-05 11720   0.708E-02    0.101E-02
DAV:   3    -0.371859788836E+02    0.14223E-05   -0.40743E-06 12780   0.247E-02    0.455E-03
DAV:   4    -0.371859784820E+02    0.40161E-06   -0.12173E-06 12924   0.125E-02    0.790E-04
DAV:   5    -0.371859785117E+02   -0.29670E-07   -0.34135E-07 10712   0.466E-03    0.495E-04
DAV:   6    -0.371859785180E+02   -0.63005E-08   -0.10915E-08  6224   0.127E-03
  41 F= -.37185979E+02 E0= -.37183385E+02  d E =-.163640E-05
 trial-energy change:   -0.000002  1 .order   -0.000002   -0.000003   -0.000001
 step:   2.0835(harm=  1.6315)  dis= 0.00045  next Energy=   -37.185979 (dE=-0.190E-05)
 bond charge predicted
       N       E                     dE             d eps       ncg     rms          rms(c)
DAV:   1    -0.371859795964E+02   -0.10847E-05   -0.92924E-04  9900   0.179E-01    0.138E-02
DAV:   2    -0.371859796677E+02   -0.71329E-07   -0.31546E-05 11712   0.565E-02    0.801E-03
DAV:   3    -0.371859787310E+02    0.93670E-06   -0.25865E-06 12832   0.198E-02    0.361E-03
DAV:   4    -0.371859784692E+02    0.26183E-06   -0.77609E-07 12896   0.100E-02    0.626E-04
DAV:   5    -0.371859784884E+02   -0.19174E-07   -0.21469E-07 10712   0.384E-03    0.403E-04
DAV:   6    -0.371859784932E+02   -0.48522E-08   -0.88648E-09  6104   0.159E-03
  42 F= -.37185978E+02 E0= -.37183384E+02  d E =-.161164E-05
 curvature:  -0.17 expect dE=-0.370E-06 dE for cont linesearch -0.112E-07
 trial: gam= 0.00000 g(F)=  0.160E-05 g(S)=  0.635E-06 ort =-0.623E-06 (trialstep = 0.134E+01)
 search vector abs. value=  0.223E-05
 bond charge predicted
       N       E                     dE             d eps       ncg     rms          rms(c)
DAV:   1    -0.371859833564E+02   -0.48680E-05   -0.78155E-04 10120   0.193E-01    0.200E-02
DAV:   2    -0.371859803105E+02    0.30458E-05   -0.61860E-05 12496   0.943E-02    0.104E-02
DAV:   3    -0.371859795542E+02    0.75632E-06   -0.46549E-06 13868   0.297E-02    0.505E-03
DAV:   4    -0.371859792797E+02    0.27453E-06   -0.12485E-06 14168   0.136E-02    0.147E-03
DAV:   5    -0.371859793251E+02   -0.45449E-07   -0.38246E-07 10748   0.560E-03    0.574E-04
DAV:   6    -0.371859793272E+02   -0.20855E-08   -0.50503E-08 10460   0.268E-03
  43 F= -.37185979E+02 E0= -.37183381E+02  d E =-.834013E-06
 trial-energy change:   -0.000001  1 .order   -0.000001   -0.000003    0.000002
 step:   0.9261(harm=  0.8586)  dis= 0.00010  next Energy=   -37.185980 (dE=-0.109E-05)
 bond charge predicted
       N       E                     dE             d eps       ncg     rms          rms(c)
DAV:   1    -0.371859800937E+02   -0.76852E-06   -0.75723E-05 10132   0.603E-02    0.620E-03
DAV:   2    -0.371859798108E+02    0.28291E-06   -0.59854E-06 12496   0.292E-02    0.323E-03
DAV:   3    -0.371859796547E+02    0.15606E-06   -0.44590E-07 13900   0.909E-03    0.157E-03
DAV:   4    -0.371859795681E+02    0.86599E-07   -0.12131E-07 13904   0.415E-03    0.454E-04
DAV:   5    -0.371859795543E+02    0.13762E-07   -0.35981E-08  8572   0.166E-03    0.175E-04
DAV:   6    -0.371859795540E+02    0.37880E-09   -0.49107E-09  5396   0.920E-04
  44 F= -.37185980E+02 E0= -.37183383E+02  d E =-.106074E-05
 curvature:  -0.42 expect dE=-0.337E-06 dE for cont linesearch -0.228E-08
 trial: gam= 0.40819 g(F)=  0.592E-06 g(S)=  0.209E-06 ort =-0.110E-06 (trialstep = 0.126E+01)
 search vector abs. value=  0.108E-05
 bond charge predicted
       N       E                     dE             d eps       ncg     rms          rms(c)
DAV:   1    -0.371859832847E+02   -0.37304E-05   -0.33262E-04 10840   0.156E-01    0.166E-02
DAV:   2    -0.371859805504E+02    0.27343E-05   -0.36740E-05 11336   0.850E-02    0.718E-03
DAV:   3    -0.371859802166E+02    0.33382E-06   -0.28562E-06 13940   0.229E-02    0.354E-03
DAV:   4    -0.371859800692E+02    0.14743E-06   -0.50251E-07 14496   0.104E-02    0.104E-03
DAV:   5    -0.371859800834E+02   -0.14281E-07   -0.16652E-07 11196   0.379E-03    0.401E-04
DAV:   6    -0.371859800805E+02    0.29663E-08   -0.23519E-08  7316   0.156E-03
  45 F= -.37185980E+02 E0= -.37183381E+02  d E =-.526516E-06
 trial-energy change:   -0.000001  1 .order   -0.000001   -0.000001   -0.000000
 step:   1.4740(harm=  1.4740)  dis= 0.00012  next Energy=   -37.185980 (dE=-0.557E-06)
 bond charge predicted
       N       E                     dE             d eps       ncg     rms          rms(c)
DAV:   1    -0.371859801533E+02   -0.69880E-07   -0.95029E-06 10908   0.262E-02    0.284E-03
DAV:   2    -0.371859800603E+02    0.93060E-07   -0.10402E-06 11384   0.144E-02    0.122E-03
DAV:   3    -0.371859800657E+02   -0.54192E-08   -0.79004E-08 11832   0.390E-03
  46 F= -.37185980E+02 E0= -.37183381E+02  d E =-.511722E-06
 curvature:  -1.06 expect dE=-0.144E-05 dE for cont linesearch -0.198E-07
 trial: gam= 1.67266 g(F)=  0.322E-06 g(S)=  0.104E-05 ort =-0.142E-06 (trialstep = 0.360E+00)
 search vector abs. value=  0.392E-05
 bond charge predicted
       N       E                     dE             d eps       ncg     rms          rms(c)
DAV:   1    -0.371859805784E+02   -0.51815E-06   -0.95984E-05  9924   0.571E-02    0.476E-03
DAV:   2    -0.371859805274E+02    0.51004E-07   -0.30813E-06 11848   0.186E-02    0.277E-03
DAV:   3    -0.371859803847E+02    0.14268E-06   -0.30093E-07 12584   0.659E-03    0.127E-03
DAV:   4    -0.371859803410E+02    0.43728E-07   -0.89250E-08 11708   0.343E-03    0.235E-04
DAV:   5    -0.371859803409E+02    0.10914E-09   -0.23750E-08  6656   0.135E-03
  47 F= -.37185980E+02 E0= -.37183379E+02  d E =-.275208E-06
 trial-energy change:   -0.000000  1 .order   -0.000000   -0.000000   -0.000000
 step:   0.9442(harm=  0.9442)  dis= 0.00017  next Energy=   -37.185981 (dE=-0.532E-06)
 bond charge predicted
       N       E                     dE             d eps       ncg     rms          rms(c)
DAV:   1    -0.371859811002E+02   -0.75923E-06   -0.25203E-04  9924   0.920E-02    0.761E-03
DAV:   2    -0.371859809699E+02    0.13030E-06   -0.78868E-06 11832   0.296E-02    0.444E-03
DAV:   3    -0.371859806410E+02    0.32888E-06   -0.76732E-07 12632   0.104E-02    0.200E-03
DAV:   4    -0.371859805501E+02    0.90950E-07   -0.22334E-07 12344   0.561E-03    0.370E-04
DAV:   5    -0.371859805525E+02   -0.24606E-08   -0.62412E-08 10664   0.223E-03
  48 F= -.37185981E+02 E0= -.37183375E+02  d E =-.486875E-06
 curvature:  -1.64 expect dE=-0.847E-06 dE for cont linesearch -0.154E-07
 trial: gam= 0.02426 g(F)=  0.392E-06 g(S)=  0.124E-06 ort = 0.192E-06 (trialstep = 0.477E+00)
 search vector abs. value=  0.528E-06
 bond charge predicted
       N       E                     dE             d eps       ncg     rms          rms(c)
DAV:   1    -0.371859808407E+02   -0.29056E-06   -0.23305E-05 10276   0.360E-02    0.335E-03
DAV:   2    -0.371859808235E+02    0.17195E-07   -0.20167E-06 11776   0.180E-02    0.149E-03
DAV:   3    -0.371859807758E+02    0.47678E-07   -0.16597E-07 13628   0.496E-03    0.773E-04
DAV:   4    -0.371859807443E+02    0.31502E-07   -0.24539E-08  8796   0.223E-03    0.198E-04
DAV:   5    -0.371859807415E+02    0.27949E-08   -0.11497E-08  6120   0.102E-03
  49 F= -.37185981E+02 E0= -.37183375E+02  d E =-.188934E-06
 trial-energy change:   -0.000000  1 .order   -0.000000   -0.000000   -0.000000
 step:   1.0060(harm=  1.0060)  dis= 0.00006  next Energy=   -37.185981 (dE=-0.262E-06)
 bond charge predicted
       N       E                     dE             d eps       ncg     rms          rms(c)
DAV:   1    -0.371859809276E+02   -0.18328E-06   -0.28593E-05 10240   0.399E-02    0.370E-03
DAV:   2    -0.371859809077E+02    0.19813E-07   -0.24705E-06 11816   0.198E-02    0.165E-03
DAV:   3    -0.371859808530E+02    0.54695E-07   -0.20279E-07 13760   0.545E-03    0.853E-04
DAV:   4    -0.371859808185E+02    0.34529E-07   -0.30526E-08  9568   0.243E-03    0.215E-04
DAV:   5    -0.371859808152E+02    0.33465E-08   -0.13216E-08  6296   0.104E-03
  50 F= -.37185981E+02 E0= -.37183374E+02  d E =-.262623E-06
 curvature:  -0.51 expect dE=-0.163E-06 dE for cont linesearch -0.175E-10
 trial: gam= 0.64276 g(F)=  0.235E-06 g(S)=  0.844E-07 ort =-0.426E-08 (trialstep = 0.578E+00)
 search vector abs. value=  0.532E-06
 bond charge predicted
       N       E                     dE             d eps       ncg     rms          rms(c)
DAV:   1    -0.371859808844E+02   -0.65864E-07   -0.38403E-05  9880   0.364E-02    0.213E-03
DAV:   2    -0.371859809521E+02   -0.67744E-07   -0.14419E-06 11936   0.116E-02    0.104E-03
DAV:   3    -0.371859809608E+02   -0.86511E-08   -0.10331E-07 11460   0.327E-03    0.589E-04
DAV:   4    -0.371859809613E+02   -0.47339E-09   -0.13171E-08  6184   0.170E-03
  51 F= -.37185981E+02 E0= -.37183373E+02  d E =-.146078E-06
 trial-energy change:   -0.000000  1 .order   -0.000000   -0.000000   -0.000000
 step:   1.6203(harm=  1.6203)  dis= 0.00014  next Energy=   -37.185981 (dE=-0.257E-06)
 bond charge predicted
       N       E                     dE             d eps       ncg     rms          rms(c)
DAV:   1    -0.371859808336E+02    0.12720E-06   -0.12475E-04  9872   0.658E-02    0.387E-03
DAV:   2    -0.371859810592E+02   -0.22560E-06   -0.46781E-06 12000   0.209E-02    0.187E-03
DAV:   3    -0.371859810649E+02   -0.57016E-08   -0.34091E-07 11596   0.591E-03    0.106E-03
DAV:   4    -0.371859810555E+02    0.93614E-08   -0.53927E-08 11480   0.313E-03
  52 F= -.37185981E+02 E0= -.37183372E+02  d E =-.240345E-06
 curvature:  -1.36 expect dE=-0.726E-06 dE for cont linesearch -0.140E-08
 trial: gam= 1.90092 g(F)=  0.246E-06 g(S)=  0.287E-06 ort =-0.234E-07 (trialstep = 0.177E+00)
 search vector abs. value=  0.237E-05
 bond charge predicted
       N       E                     dE             d eps       ncg     rms          rms(c)
DAV:   1    -0.371859811421E+02   -0.77188E-07   -0.15450E-05  9960   0.248E-02    0.204E-03
DAV:   2    -0.371859811459E+02   -0.37840E-08   -0.79143E-07 11936   0.103E-02    0.990E-04
DAV:   3    -0.371859811189E+02    0.27000E-07   -0.53354E-08 10748   0.290E-03    0.500E-04
DAV:   4    -0.371859811004E+02    0.18412E-07   -0.97661E-09  5884   0.134E-03    0.142E-04
DAV:   5    -0.371859810960E+02    0.44570E-08   -0.57247E-09  5484   0.676E-04
  53 F= -.37185981E+02 E0= -.37183372E+02  d E =-.404648E-07
 trial-energy change:   -0.000000  1 .order   -0.000000   -0.000000   -0.000000
 step:   0.4330(harm=  0.4330)  dis= 0.00009  next Energy=   -37.185981 (dE=-0.106E-06)
 bond charge predicted
       N       E                     dE             d eps       ncg     rms          rms(c)
DAV:   1    -0.371859812023E+02   -0.10188E-06   -0.32538E-05  9948   0.364E-02    0.296E-03
DAV:   2    -0.371859812129E+02   -0.10566E-07   -0.16890E-06 11900   0.150E-02    0.143E-03
DAV:   3    -0.371859811697E+02    0.43162E-07   -0.11893E-07 13332   0.426E-03    0.726E-04
DAV:   4    -0.371859811417E+02    0.28000E-07   -0.18015E-08  7496   0.186E-03    0.197E-04
DAV:   5    -0.371859811361E+02    0.56248E-08   -0.10359E-08  5608   0.814E-04
  54 F= -.37185981E+02 E0= -.37183371E+02  d E =-.805767E-07
 curvature:  -1.05 expect dE=-0.355E-06 dE for cont linesearch -0.172E-07
 trial: gam= 0.10933 g(F)=  0.321E-06 g(S)=  0.173E-07 ort = 0.197E-06 (trialstep = 0.228E+00)
 search vector abs. value=  0.410E-06
 reached required accuracy - stopping structural energy minimisation
 writing wavefunctions
Tue Jan  4 00:25:21 CST 2022
