Mon Jan  3 23:55:16 CST 2022
 running on   48 total cores
 distrk:  each k-point on   48 cores,    1 groups
 distr:  one band on   24 cores,    2 groups
 using from now: INCAR     
 vasp.5.3.5 31Mar14 (build Jan 11 2016 19:50:55) complex                        
  
 POSCAR found type information on POSCAR  Zn Ga N  O 
 POSCAR found :  4 types and       8 ions
 scaLAPACK will be used

 ----------------------------------------------------------------------------- 
|                                                                             |
|           W    W    AA    RRRRR   N    N  II  N    N   GGGG   !!!           |
|           W    W   A  A   R    R  NN   N  II  NN   N  G    G  !!!           |
|           W    W  A    A  R    R  N N  N  II  N N  N  G       !!!           |
|           W WW W  AAAAAA  RRRRR   N  N N  II  N  N N  G  GGG   !            |
|           WW  WW  A    A  R   R   N   NN  II  N   NN  G    G                |
|           W    W  A    A  R    R  N    N  II  N    N   GGGG   !!!           |
|                                                                             |
|      For optimal performance we recommend to set                            |
|        NCORE= 4 - approx SQRT( number of cores)                             |
|      NCORE specifies how many cores store one orbital (NPAR=cpu/NCORE).     |
|      This setting can  greatly improve the performance of VASP for DFT.     |
|      The default, NPAR=number of cores might be grossly inefficient         |
|      on modern multi-core architectures or massively parallel machines.     |
|      Do your own testing !!!!                                               |
|      Unfortunately you need to use the default for GW and RPA calculations. |
|      (for HF NCORE is supported but not extensively tested yet)             |
|                                                                             |
 ----------------------------------------------------------------------------- 

 LDA part: xc-table for Pade appr. of Perdew
 POSCAR, INCAR and KPOINTS ok, starting setup
 WARNING: small aliasing (wrap around) errors must be expected
 FFT: planning ...
 WAVECAR not read
 entering main loop
       N       E                     dE             d eps       ncg     rms          rms(c)
DAV:   1     0.906676660692E+03    0.90668E+03   -0.42374E+04 10228   0.337E+03
DAV:   2     0.144824991511E+03   -0.76185E+03   -0.73268E+03  9880   0.788E+02
DAV:   3    -0.284881292977E+02   -0.17331E+03   -0.16827E+03 11244   0.268E+02
DAV:   4    -0.437934194423E+02   -0.15305E+02   -0.15109E+02 11736   0.801E+01
DAV:   5    -0.443051832380E+02   -0.51176E+00   -0.50978E+00 12436   0.146E+01    0.158E+01
DAV:   6    -0.378873216703E+02    0.64179E+01   -0.30654E+01 18676   0.772E+01    0.772E+00
DAV:   7    -0.381095707191E+02   -0.22225E+00   -0.73259E+00 10724   0.235E+01    0.505E+00
DAV:   8    -0.380732436718E+02    0.36327E-01   -0.93374E-01 13764   0.101E+01    0.266E+00
DAV:   9    -0.380712222076E+02    0.20215E-02   -0.21344E-01 13276   0.624E+00    0.725E-01
DAV:  10    -0.380631622479E+02    0.80600E-02   -0.49805E-02 13852   0.312E+00    0.274E-01
DAV:  11    -0.380636440023E+02   -0.48175E-03   -0.13408E-02 11276   0.982E-01    0.146E-01
DAV:  12    -0.380637730760E+02   -0.12907E-03   -0.19069E-03 13200   0.552E-01    0.851E-02
DAV:  13    -0.380638521137E+02   -0.79038E-04   -0.50276E-04 11968   0.343E-01    0.254E-02
DAV:  14    -0.380638639977E+02   -0.11884E-04   -0.10600E-04 13272   0.942E-02    0.147E-02
DAV:  15    -0.380638664163E+02   -0.24186E-05   -0.21030E-05 12864   0.546E-02    0.721E-03
DAV:  16    -0.380638680871E+02   -0.16707E-05   -0.58831E-06 12240   0.250E-02    0.290E-03
DAV:  17    -0.380638682782E+02   -0.19115E-06   -0.14715E-06 11408   0.973E-03    0.121E-03
DAV:  18    -0.380638683035E+02   -0.25270E-07   -0.20184E-07 12004   0.323E-03    0.543E-04
DAV:  19    -0.380638682536E+02    0.49872E-07   -0.39888E-08 10248   0.214E-03    0.226E-04
DAV:  20    -0.380638682477E+02    0.59053E-08   -0.76300E-09  6636   0.155E-03
   1 F= -.38063868E+02 E0= -.38062155E+02  d E =-.380639E+02
 curvature:   0.00 expect dE= 0.000E+00 dE for cont linesearch  0.000E+00
 trial: gam= 0.00000 g(F)=  0.977E-02 g(S)=  0.621E-03 ort = 0.000E+00 (trialstep = 0.100E+01)
 search vector abs. value=  0.104E-01
 bond charge predicted
       N       E                     dE             d eps       ncg     rms          rms(c)
DAV:   1    -0.380628651354E+02    0.10031E-02   -0.19058E+00  9904   0.733E+00    0.401E-01
DAV:   2    -0.380681618799E+02   -0.52967E-02   -0.75593E-02 12232   0.228E+00    0.256E-01
DAV:   3    -0.380677172979E+02    0.44458E-03   -0.45293E-03 12344   0.737E-01    0.147E-01
DAV:   4    -0.380673898200E+02    0.32748E-03   -0.12360E-03 11528   0.368E-01    0.331E-02
DAV:   5    -0.380674070119E+02   -0.17192E-04   -0.27754E-04 11572   0.172E-01    0.179E-02
DAV:   6    -0.380674073905E+02   -0.37863E-06   -0.31925E-05 12120   0.873E-02    0.111E-02
DAV:   7    -0.380674066133E+02    0.77717E-06   -0.81571E-06 13692   0.526E-02    0.419E-03
DAV:   8    -0.380674068838E+02   -0.27046E-06   -0.34259E-06 13188   0.163E-02    0.154E-03
DAV:   9    -0.380674068986E+02   -0.14822E-07   -0.46859E-07 11468   0.643E-03    0.871E-04
DAV:  10    -0.380674069215E+02   -0.22894E-07   -0.70740E-08 12120   0.315E-03    0.367E-04
DAV:  11    -0.380674069407E+02   -0.19196E-07   -0.10951E-08  6240   0.138E-03    0.102E-04
DAV:  12    -0.380674069438E+02   -0.30732E-08   -0.37355E-09  6128   0.719E-04
   2 F= -.38067407E+02 E0= -.38065962E+02  d E =-.353870E-02
 trial-energy change:   -0.003539  1 .order   -0.003540   -0.010389    0.003309
 step:   0.7584(harm=  0.7584)  dis= 0.00798  next Energy=   -38.067808 (dE=-0.394E-02)
 bond charge predicted
       N       E                     dE             d eps       ncg     rms          rms(c)
DAV:   1    -0.380675417599E+02   -0.13482E-03   -0.11120E-01  9896   0.176E+00    0.975E-02
DAV:   2    -0.380678520058E+02   -0.31025E-03   -0.44202E-03 12220   0.541E-01    0.613E-02
DAV:   3    -0.380678256761E+02    0.26330E-04   -0.26551E-04 12156   0.173E-01    0.352E-02
DAV:   4    -0.380678073644E+02    0.18312E-04   -0.72074E-05 11368   0.863E-02    0.831E-03
DAV:   5    -0.380678083761E+02   -0.10118E-05   -0.15797E-05 11908   0.406E-02    0.428E-03
DAV:   6    -0.380678083545E+02    0.21652E-07   -0.19164E-06 11956   0.218E-02    0.267E-03
DAV:   7    -0.380678082568E+02    0.97670E-07   -0.49872E-07 13864   0.123E-02    0.101E-03
DAV:   8    -0.380678082444E+02    0.12426E-07   -0.19514E-07 13180   0.380E-03    0.388E-04
DAV:   9    -0.380678082413E+02    0.31118E-08   -0.24917E-08  8112   0.174E-03
   3 F= -.38067808E+02 E0= -.38066308E+02  d E =-.393999E-02
 curvature:  -0.38 expect dE=-0.236E-02 dE for cont linesearch -0.120E-08
 trial: gam= 0.60029 g(F)=  0.389E-02 g(S)=  0.234E-02 ort =-0.575E-05 (trialstep = 0.952E+00)
 search vector abs. value=  0.997E-02
 bond charge predicted
       N       E                     dE             d eps       ncg     rms          rms(c)
DAV:   1    -0.380747749728E+02   -0.69667E-02   -0.14200E+00  9908   0.732E+00    0.702E-01
DAV:   2    -0.380727888696E+02    0.19861E-02   -0.67519E-02 11720   0.307E+00    0.367E-01
DAV:   3    -0.380710875622E+02    0.17013E-02   -0.58078E-03 13188   0.979E-01    0.176E-01
DAV:   4    -0.380705555950E+02    0.53197E-03   -0.14239E-03 12452   0.531E-01    0.352E-02
DAV:   5    -0.380705751545E+02   -0.19560E-04   -0.42285E-04 10704   0.206E-01    0.170E-02
DAV:   6    -0.380705767894E+02   -0.16349E-05   -0.48463E-05 12424   0.870E-02    0.122E-02
DAV:   7    -0.380705759757E+02    0.81372E-06   -0.84100E-06 13120   0.668E-02    0.528E-03
DAV:   8    -0.380705759377E+02    0.38060E-07   -0.30120E-06 13340   0.201E-02    0.161E-03
DAV:   9    -0.380705759376E+02    0.62755E-10   -0.64301E-07 11428   0.963E-03    0.118E-03
DAV:  10    -0.380705758951E+02    0.42471E-07   -0.10285E-07 12552   0.287E-03    0.392E-04
DAV:  11    -0.380705758738E+02    0.21286E-07   -0.11771E-08  6244   0.135E-03    0.145E-04
DAV:  12    -0.380705758676E+02    0.62546E-08   -0.37583E-09  6132   0.106E-03
   4 F= -.38070576E+02 E0= -.38069107E+02  d E =-.276763E-02
 trial-energy change:   -0.002768  1 .order   -0.002782   -0.005927    0.000362
 step:   0.8962(harm=  0.8969)  dis= 0.00731  next Energy=   -38.070586 (dE=-0.278E-02)
 bond charge predicted
       N       E                     dE             d eps       ncg     rms          rms(c)
DAV:   1    -0.380706021242E+02   -0.26250E-04   -0.48287E-03  9900   0.430E-01    0.410E-02
DAV:   2    -0.380705957802E+02    0.63440E-05   -0.23226E-04 11720   0.181E-01    0.214E-02
DAV:   3    -0.380705898123E+02    0.59678E-05   -0.19909E-05 13132   0.577E-02    0.102E-02
DAV:   4    -0.380705879819E+02    0.18305E-05   -0.48160E-06 12632   0.312E-02    0.206E-03
DAV:   5    -0.380705880649E+02   -0.82981E-07   -0.14172E-06 10720   0.122E-02    0.997E-04
DAV:   6    -0.380705880825E+02   -0.17693E-07   -0.16684E-07 12324   0.523E-03    0.715E-04
DAV:   7    -0.380705880956E+02   -0.13068E-07   -0.27078E-08  8220   0.394E-03    0.303E-04
DAV:   8    -0.380705881082E+02   -0.12593E-07   -0.10493E-08  6040   0.121E-03    0.879E-05
DAV:   9    -0.380705881093E+02   -0.10896E-08   -0.36855E-09  5852   0.693E-04
   5 F= -.38070588E+02 E0= -.38069118E+02  d E =-.277987E-02
 curvature:  -0.72 expect dE=-0.166E-02 dE for cont linesearch -0.953E-09
 trial: gam= 0.35181 g(F)=  0.171E-02 g(S)=  0.606E-03 ort = 0.364E-05 (trialstep = 0.941E+00)
 search vector abs. value=  0.355E-02
 bond charge predicted
       N       E                     dE             d eps       ncg     rms          rms(c)
DAV:   1    -0.380743495469E+02   -0.37614E-02   -0.48188E-01 10208   0.406E+00    0.417E-01
DAV:   2    -0.380732003836E+02    0.11492E-02   -0.14926E-02 11856   0.131E+00    0.246E-01
DAV:   3    -0.380720159385E+02    0.11844E-02   -0.22866E-03 12796   0.779E-01    0.670E-02
DAV:   4    -0.380720244365E+02   -0.84980E-05   -0.78500E-04 10688   0.453E-01    0.212E-02
DAV:   5    -0.380720326174E+02   -0.81809E-05   -0.14182E-04 11796   0.113E-01    0.152E-02
DAV:   6    -0.380720315881E+02    0.10293E-05   -0.16906E-05 12032   0.730E-02    0.732E-03
DAV:   7    -0.380720317174E+02   -0.12926E-06   -0.50467E-06 13756   0.296E-02    0.252E-03
DAV:   8    -0.380720318173E+02   -0.99953E-07   -0.11507E-06 11872   0.107E-02    0.141E-03
DAV:   9    -0.380720318190E+02   -0.16248E-08   -0.16669E-07 13004   0.588E-03    0.789E-04
DAV:  10    -0.380720318277E+02   -0.87007E-08   -0.39597E-08 10060   0.225E-03
   6 F= -.38072032E+02 E0= -.38070569E+02  d E =-.144372E-02
 trial-energy change:   -0.001444  1 .order   -0.001451   -0.002180   -0.000722
 step:   1.4268(harm=  1.4060)  dis= 0.00528  next Energy=   -38.072217 (dE=-0.163E-02)
 bond charge predicted
       N       E                     dE             d eps       ncg     rms          rms(c)
DAV:   1    -0.380728297972E+02   -0.79798E-03   -0.12870E-01 10216   0.210E+00    0.215E-01
DAV:   2    -0.380725234309E+02    0.30637E-03   -0.39735E-03 11872   0.676E-01    0.127E-01
DAV:   3    -0.380722075455E+02    0.31589E-03   -0.60707E-04 12880   0.400E-01    0.341E-02
DAV:   4    -0.380722103603E+02   -0.28148E-05   -0.20850E-04 10676   0.234E-01    0.108E-02
DAV:   5    -0.380722126176E+02   -0.22573E-05   -0.37564E-05 11736   0.578E-02    0.783E-03
DAV:   6    -0.380722123571E+02    0.26047E-06   -0.44472E-06 12080   0.379E-02    0.374E-03
DAV:   7    -0.380722124080E+02   -0.50863E-07   -0.13326E-06 13832   0.152E-02    0.129E-03
DAV:   8    -0.380722124431E+02   -0.35117E-07   -0.30404E-07 11928   0.545E-03    0.727E-04
DAV:   9    -0.380722124420E+02    0.10787E-08   -0.37959E-08  8884   0.291E-03
   7 F= -.38072212E+02 E0= -.38070753E+02  d E =-.162433E-02
 curvature:  -1.08 expect dE=-0.100E-02 dE for cont linesearch -0.286E-06
 trial: gam= 0.41534 g(F)=  0.764E-03 g(S)=  0.166E-03 ort =-0.308E-04 (trialstep = 0.104E+01)
 search vector abs. value=  0.152E-02
 bond charge predicted
       N       E                     dE             d eps       ncg     rms          rms(c)
DAV:   1    -0.380726853864E+02   -0.47294E-03   -0.33710E-01  9972   0.315E+00    0.156E-01
DAV:   2    -0.380730522789E+02   -0.36689E-03   -0.67068E-03 11808   0.670E-01    0.975E-02
DAV:   3    -0.380729486816E+02    0.10360E-03   -0.39570E-04 13700   0.206E-01    0.430E-02
DAV:   4    -0.380729226005E+02    0.26081E-04   -0.91983E-05 12312   0.125E-01    0.832E-03
DAV:   5    -0.380729247448E+02   -0.21443E-05   -0.28481E-05 10828   0.534E-02    0.532E-03
DAV:   6    -0.380729246987E+02    0.46110E-07   -0.23685E-06 12476   0.230E-02    0.321E-03
DAV:   7    -0.380729246408E+02    0.57893E-07   -0.59688E-07 12492   0.133E-02    0.121E-03
DAV:   8    -0.380729246442E+02   -0.33824E-08   -0.19699E-07 11616   0.512E-03    0.480E-04
DAV:   9    -0.380729246455E+02   -0.13097E-08   -0.40565E-08  8912   0.188E-03
   8 F= -.38072925E+02 E0= -.38071481E+02  d E =-.712203E-03
 trial-energy change:   -0.000712  1 .order   -0.000710   -0.000952   -0.000467
 step:   1.9807(harm=  2.0385)  dis= 0.00588  next Energy=   -38.073139 (dE=-0.926E-03)
 bond charge predicted
       N       E                     dE             d eps       ncg     rms          rms(c)
DAV:   1    -0.380729456265E+02   -0.20982E-04   -0.27821E-01  9968   0.286E+00    0.142E-01
DAV:   2    -0.380732483141E+02   -0.30269E-03   -0.55370E-03 11808   0.609E-01    0.887E-02
DAV:   3    -0.380731628090E+02    0.85505E-04   -0.32628E-04 13716   0.188E-01    0.390E-02
DAV:   4    -0.380731414464E+02    0.21363E-04   -0.75563E-05 12272   0.113E-01    0.754E-03
DAV:   5    -0.380731432303E+02   -0.17839E-05   -0.23388E-05 10832   0.482E-02    0.482E-03
DAV:   6    -0.380731431866E+02    0.43759E-07   -0.19076E-06 12472   0.206E-02    0.290E-03
DAV:   7    -0.380731431375E+02    0.49099E-07   -0.48834E-07 12476   0.120E-02    0.107E-03
DAV:   8    -0.380731431398E+02   -0.23047E-08   -0.15927E-07 11472   0.458E-03    0.435E-04
DAV:   9    -0.380731431406E+02   -0.82082E-09   -0.31286E-08  7696   0.172E-03
   9 F= -.38073143E+02 E0= -.38071714E+02  d E =-.930699E-03
 curvature:  -1.68 expect dE=-0.138E-02 dE for cont linesearch -0.495E-06
 trial: gam= 0.83581 g(F)=  0.642E-03 g(S)=  0.177E-03 ort = 0.211E-04 (trialstep = 0.972E+00)
 search vector abs. value=  0.191E-02
 bond charge predicted
       N       E                     dE             d eps       ncg     rms          rms(c)
DAV:   1    -0.380737686201E+02   -0.62548E-03   -0.35763E-01 10028   0.330E+00    0.207E-01
DAV:   2    -0.380738955260E+02   -0.12691E-03   -0.76689E-03 12440   0.745E-01    0.123E-01
DAV:   3    -0.380736008279E+02    0.29470E-03   -0.51588E-04 13368   0.249E-01    0.398E-02
DAV:   4    -0.380735875707E+02    0.13257E-04   -0.19683E-04 10856   0.150E-01    0.118E-02
DAV:   5    -0.380735894696E+02   -0.18990E-05   -0.39993E-05 11624   0.726E-02    0.791E-03
DAV:   6    -0.380735891408E+02    0.32884E-06   -0.41736E-06 12204   0.393E-02    0.411E-03
DAV:   7    -0.380735890768E+02    0.63978E-07   -0.14574E-06 12756   0.178E-02    0.166E-03
DAV:   8    -0.380735890946E+02   -0.17786E-07   -0.42584E-07 10988   0.691E-03    0.663E-04
DAV:   9    -0.380735890995E+02   -0.48517E-08   -0.71578E-08 10236   0.365E-03
  10 F= -.38073589E+02 E0= -.38072169E+02  d E =-.445959E-03
 trial-energy change:   -0.000446  1 .order   -0.000449   -0.000813   -0.000084
 step:   1.0858(harm=  1.0831)  dis= 0.00344  next Energy=   -38.073594 (dE=-0.451E-03)
 bond charge predicted
       N       E                     dE             d eps       ncg     rms          rms(c)
DAV:   1    -0.380735964185E+02   -0.73239E-05   -0.49131E-03 10072   0.387E-01    0.242E-02
DAV:   2    -0.380735982279E+02   -0.18094E-05   -0.10537E-04 12416   0.873E-02    0.144E-02
DAV:   3    -0.380735941987E+02    0.40292E-05   -0.71589E-06 13440   0.295E-02    0.468E-03
DAV:   4    -0.380735939983E+02    0.20038E-06   -0.27254E-06 10900   0.176E-02    0.139E-03
DAV:   5    -0.380735940063E+02   -0.79967E-08   -0.55296E-07 11552   0.865E-03    0.941E-04
DAV:   6    -0.380735939963E+02    0.99653E-08   -0.56415E-08 10148   0.453E-03
  11 F= -.38073594E+02 E0= -.38072175E+02  d E =-.450856E-03
 curvature:  -1.24 expect dE=-0.105E-02 dE for cont linesearch -0.791E-08
 trial: gam= 1.07891 g(F)=  0.498E-03 g(S)=  0.354E-03 ort =-0.350E-05 (trialstep = 0.620E+00)
 search vector abs. value=  0.307E-02
 bond charge predicted
       N       E                     dE             d eps       ncg     rms          rms(c)
DAV:   1    -0.380745959167E+02   -0.10019E-02   -0.22554E-01 10032   0.302E+00    0.266E-01
DAV:   2    -0.380742517063E+02    0.34421E-03   -0.11321E-02 11364   0.129E+00    0.123E-01
DAV:   3    -0.380740611871E+02    0.19052E-03   -0.95384E-04 13936   0.406E-01    0.617E-02
DAV:   4    -0.380739798112E+02    0.81376E-04   -0.18936E-04 13088   0.205E-01    0.150E-02
DAV:   5    -0.380739808469E+02   -0.10357E-05   -0.63749E-05 10720   0.888E-02    0.594E-03
DAV:   6    -0.380739813347E+02   -0.48773E-06   -0.96697E-06 12044   0.380E-02    0.447E-03
DAV:   7    -0.380739813307E+02    0.39286E-08   -0.13485E-06 11756   0.220E-02    0.227E-03
DAV:   8    -0.380739814067E+02   -0.76003E-07   -0.40886E-07 14240   0.753E-03    0.663E-04
DAV:   9    -0.380739814302E+02   -0.23418E-07   -0.95271E-08 10720   0.295E-03    0.433E-04
DAV:  10    -0.380739814485E+02   -0.18335E-07   -0.91941E-09  6300   0.136E-03    0.179E-04
DAV:  11    -0.380739814592E+02   -0.10723E-07   -0.32961E-09  6036   0.746E-04    0.474E-05
DAV:  12    -0.380739814601E+02   -0.91450E-09   -0.10369E-09  5860   0.324E-04
  12 F= -.38073981E+02 E0= -.38072623E+02  d E =-.387464E-03
 trial-energy change:   -0.000387  1 .order   -0.000379   -0.000526   -0.000233
 step:   1.0056(harm=  1.1124)  dis= 0.00374  next Energy=   -38.074056 (dE=-0.462E-03)
 bond charge predicted
       N       E                     dE             d eps       ncg     rms          rms(c)
DAV:   1    -0.380743085863E+02   -0.32713E-03   -0.87335E-02 10036   0.188E+00    0.165E-01
DAV:   2    -0.380741749523E+02    0.13363E-03   -0.43745E-03 11364   0.802E-01    0.766E-02
DAV:   3    -0.380741009232E+02    0.74029E-04   -0.36905E-04 13912   0.253E-01    0.383E-02
DAV:   4    -0.380740692816E+02    0.31642E-04   -0.73411E-05 13088   0.128E-01    0.929E-03
DAV:   5    -0.380740696462E+02   -0.36469E-06   -0.24711E-05 10720   0.552E-02    0.370E-03
DAV:   6    -0.380740698352E+02   -0.18897E-06   -0.37370E-06 12036   0.237E-02    0.278E-03
DAV:   7    -0.380740698447E+02   -0.94633E-08   -0.52203E-07 11756   0.137E-02    0.141E-03
DAV:   8    -0.380740698902E+02   -0.45512E-07   -0.15860E-07 13968   0.466E-03    0.412E-04
DAV:   9    -0.380740699024E+02   -0.12162E-07   -0.36009E-08  8748   0.186E-03    0.272E-04
DAV:  10    -0.380740699138E+02   -0.11436E-07   -0.44879E-09  6036   0.942E-04    0.106E-04
DAV:  11    -0.380740699195E+02   -0.57412E-08   -0.14527E-09  5924   0.526E-04
  13 F= -.38074070E+02 E0= -.38072749E+02  d E =-.475923E-03
 curvature:  -1.92 expect dE=-0.964E-03 dE for cont linesearch -0.398E-05
 trial: gam= 0.47001 g(F)=  0.402E-03 g(S)=  0.100E-03 ort = 0.798E-04 (trialstep = 0.697E+00)
 search vector abs. value=  0.126E-02
 bond charge predicted
       N       E                     dE             d eps       ncg     rms          rms(c)
DAV:   1    -0.380745012480E+02   -0.43133E-03   -0.11874E-01  9868   0.192E+00    0.150E-01
DAV:   2    -0.380745251993E+02   -0.23951E-04   -0.37526E-03 11576   0.582E-01    0.836E-02
DAV:   3    -0.380743969087E+02    0.12829E-03   -0.29568E-04 12584   0.219E-01    0.347E-02
DAV:   4    -0.380743798222E+02    0.17087E-04   -0.98338E-05 12520   0.113E-01    0.746E-03
DAV:   5    -0.380743816620E+02   -0.18398E-05   -0.25135E-05 11272   0.441E-02    0.509E-03
DAV:   6    -0.380743816180E+02    0.43918E-07   -0.14713E-06 12628   0.174E-02    0.294E-03
DAV:   7    -0.380743816400E+02   -0.21981E-07   -0.50827E-07 13588   0.142E-02    0.100E-03
DAV:   8    -0.380743816736E+02   -0.33557E-07   -0.15949E-07 12892   0.526E-03    0.465E-04
DAV:   9    -0.380743816790E+02   -0.54665E-08   -0.32635E-08  8020   0.150E-03
  14 F= -.38074382E+02 E0= -.38073108E+02  d E =-.311760E-03
 trial-energy change:   -0.000312  1 .order   -0.000312   -0.000376   -0.000247
 step:   2.0372(harm=  2.0372)  dis= 0.00593  next Energy=   -38.074619 (dE=-0.550E-03)
 bond charge predicted
       N       E                     dE             d eps       ncg     rms          rms(c)
DAV:   1    -0.380750615403E+02   -0.67987E-03   -0.43922E-01  9868   0.370E+00    0.288E-01
DAV:   2    -0.380751533625E+02   -0.91822E-04   -0.13907E-02 11568   0.112E+00    0.161E-01
DAV:   3    -0.380746809412E+02    0.47242E-03   -0.11008E-03 12560   0.427E-01    0.671E-02
DAV:   4    -0.380746172188E+02    0.63722E-04   -0.36639E-04 12456   0.219E-01    0.144E-02
DAV:   5    -0.380746240684E+02   -0.68496E-05   -0.94354E-05 11280   0.846E-02    0.978E-03
DAV:   6    -0.380746238550E+02    0.21338E-06   -0.53179E-06 12644   0.321E-02    0.565E-03
DAV:   7    -0.380746238733E+02   -0.18289E-07   -0.18441E-06 13584   0.272E-02    0.191E-03
DAV:   8    -0.380746239558E+02   -0.82513E-07   -0.58914E-07 13316   0.104E-02    0.895E-04
DAV:   9    -0.380746239702E+02   -0.14414E-07   -0.12826E-07 11360   0.280E-03    0.608E-04
DAV:  10    -0.380746239791E+02   -0.89285E-08   -0.13823E-08  6356   0.145E-03
  15 F= -.38074624E+02 E0= -.38073438E+02  d E =-.554060E-03
 curvature:  -2.37 expect dE=-0.893E-03 dE for cont linesearch -0.696E-07
 trial: gam= 0.89467 g(F)=  0.262E-03 g(S)=  0.115E-03 ort =-0.607E-05 (trialstep = 0.884E+00)
 search vector abs. value=  0.137E-02
 bond charge predicted
       N       E                     dE             d eps       ncg     rms          rms(c)
DAV:   1    -0.380747771025E+02   -0.15313E-03   -0.21413E-01  9972   0.265E+00    0.170E-01
DAV:   2    -0.380749883101E+02   -0.21121E-03   -0.68570E-03 11336   0.793E-01    0.959E-02
DAV:   3    -0.380748688490E+02    0.11946E-03   -0.51419E-04 12964   0.253E-01    0.459E-02
DAV:   4    -0.380748290319E+02    0.39817E-04   -0.12786E-04 12336   0.136E-01    0.892E-03
DAV:   5    -0.380748323405E+02   -0.33086E-05   -0.42547E-05 10784   0.589E-02    0.601E-03
DAV:   6    -0.380748321891E+02    0.15144E-06   -0.31257E-06 13124   0.274E-02    0.346E-03
DAV:   7    -0.380748320837E+02    0.10540E-06   -0.77953E-07 13580   0.169E-02    0.119E-03
DAV:   8    -0.380748320725E+02    0.11137E-07   -0.24521E-07 13744   0.513E-03    0.560E-04
DAV:   9    -0.380748320727E+02   -0.18326E-09   -0.37173E-08  8460   0.197E-03
  16 F= -.38074832E+02 E0= -.38073688E+02  d E =-.208094E-03
 trial-energy change:   -0.000208  1 .order   -0.000211   -0.000328   -0.000094
 step:   1.2889(harm=  1.2406)  dis= 0.00425  next Energy=   -38.074853 (dE=-0.229E-03)
 bond charge predicted
       N       E                     dE             d eps       ncg     rms          rms(c)
DAV:   1    -0.380748384496E+02   -0.63771E-05   -0.44971E-02  9980   0.121E+00    0.781E-02
DAV:   2    -0.380748829683E+02   -0.44519E-04   -0.14421E-03 11336   0.365E-01    0.441E-02
DAV:   3    -0.380748582077E+02    0.24761E-04   -0.10847E-04 12944   0.117E-01    0.211E-02
DAV:   4    -0.380748498954E+02    0.83123E-05   -0.27047E-05 12344   0.627E-02    0.410E-03
DAV:   5    -0.380748505851E+02   -0.68972E-06   -0.89850E-06 10808   0.270E-02    0.275E-03
DAV:   6    -0.380748505430E+02    0.42173E-07   -0.65495E-07 13076   0.127E-02    0.159E-03
DAV:   7    -0.380748505071E+02    0.35906E-07   -0.16408E-07 13600   0.785E-03    0.544E-04
DAV:   8    -0.380748504964E+02    0.10704E-07   -0.48504E-08 10228   0.238E-03    0.252E-04
DAV:   9    -0.380748504971E+02   -0.72396E-09   -0.98347E-09  6212   0.103E-03
  17 F= -.38074850E+02 E0= -.38073726E+02  d E =-.226518E-03
 curvature:  -2.25 expect dE=-0.929E-03 dE for cont linesearch -0.382E-06
 trial: gam= 1.05433 g(F)=  0.266E-03 g(S)=  0.147E-03 ort =-0.153E-04 (trialstep = 0.694E+00)
 search vector abs. value=  0.191E-02
 bond charge predicted
       N       E                     dE             d eps       ncg     rms          rms(c)
DAV:   1    -0.380749254389E+02   -0.74943E-04   -0.18364E-01  9932   0.248E+00    0.162E-01
DAV:   2    -0.380751294162E+02   -0.20398E-03   -0.65877E-03 11808   0.757E-01    0.852E-02
DAV:   3    -0.380750371680E+02    0.92248E-04   -0.46229E-04 12772   0.259E-01    0.431E-02
DAV:   4    -0.380750021698E+02    0.34998E-04   -0.11871E-04 12084   0.139E-01    0.101E-02
DAV:   5    -0.380750044011E+02   -0.22313E-05   -0.36987E-05 10756   0.602E-02    0.520E-03
DAV:   6    -0.380750045428E+02   -0.14168E-06   -0.43147E-06 12424   0.300E-02    0.378E-03
DAV:   7    -0.380750045272E+02    0.15568E-07   -0.72113E-07 12380   0.166E-02    0.185E-03
DAV:   8    -0.380750045957E+02   -0.68498E-07   -0.30168E-07 15340   0.575E-03    0.529E-04
DAV:   9    -0.380750045990E+02   -0.32519E-08   -0.56527E-08 10656   0.236E-03
  18 F= -.38075005E+02 E0= -.38073928E+02  d E =-.154102E-03
 trial-energy change:   -0.000154  1 .order   -0.000158   -0.000276   -0.000041
 step:   0.8339(harm=  0.8157)  dis= 0.00235  next Energy=   -38.075009 (dE=-0.158E-03)
 bond charge predicted
       N       E                     dE             d eps       ncg     rms          rms(c)
DAV:   1    -0.380750049884E+02   -0.39269E-06   -0.74117E-03  9948   0.496E-01    0.325E-02
DAV:   2    -0.380750132695E+02   -0.82811E-05   -0.26434E-04 11816   0.151E-01    0.171E-02
DAV:   3    -0.380750094317E+02    0.38378E-05   -0.18524E-05 12780   0.514E-02    0.865E-03
DAV:   4    -0.380750079944E+02    0.14373E-05   -0.47614E-06 12088   0.278E-02    0.201E-03
DAV:   5    -0.380750080840E+02   -0.89571E-07   -0.14914E-06 10752   0.120E-02    0.104E-03
DAV:   6    -0.380750080936E+02   -0.96416E-08   -0.17258E-07 12436   0.603E-03    0.759E-04
DAV:   7    -0.380750080992E+02   -0.55220E-08   -0.25600E-08  7708   0.335E-03
  19 F= -.38075008E+02 E0= -.38073941E+02  d E =-.157602E-03
 curvature:  -1.91 expect dE=-0.469E-03 dE for cont linesearch -0.159E-06
 trial: gam= 0.55375 g(F)=  0.201E-03 g(S)=  0.437E-04 ort =-0.126E-04 (trialstep = 0.722E+00)
 search vector abs. value=  0.815E-03
 bond charge predicted
       N       E                     dE             d eps       ncg     rms          rms(c)
DAV:   1    -0.380752213440E+02   -0.21325E-03   -0.86594E-02  9896   0.178E+00    0.142E-01
DAV:   2    -0.380752237378E+02   -0.23937E-05   -0.40725E-03 11616   0.691E-01    0.676E-02
DAV:   3    -0.380751752828E+02    0.48455E-04   -0.30394E-04 12820   0.225E-01    0.342E-02
DAV:   4    -0.380751527648E+02    0.22518E-04   -0.69300E-05 12972   0.107E-01    0.834E-03
DAV:   5    -0.380751530892E+02   -0.32436E-06   -0.18806E-05 10756   0.439E-02    0.339E-03
DAV:   6    -0.380751532151E+02   -0.12590E-06   -0.29148E-06 12160   0.209E-02    0.258E-03
DAV:   7    -0.380751532114E+02    0.36785E-08   -0.34561E-07 11920   0.126E-02    0.131E-03
DAV:   8    -0.380751532465E+02   -0.35107E-07   -0.13619E-07 14940   0.395E-03    0.397E-04
DAV:   9    -0.380751532547E+02   -0.82237E-08   -0.31385E-08  8908   0.176E-03
  20 F= -.38075153E+02 E0= -.38074098E+02  d E =-.145156E-03
 trial-energy change:   -0.000145  1 .order   -0.000143   -0.000172   -0.000115
 step:   1.6991(harm=  2.1621)  dis= 0.00361  next Energy=   -38.075235 (dE=-0.227E-03)
 bond charge predicted
       N       E                     dE             d eps       ncg     rms          rms(c)
DAV:   1    -0.380753771020E+02   -0.22386E-03   -0.15830E-01  9896   0.241E+00    0.191E-01
DAV:   2    -0.380753822371E+02   -0.51352E-05   -0.74418E-03 11624   0.935E-01    0.913E-02
DAV:   3    -0.380752942435E+02    0.87994E-04   -0.55549E-04 12828   0.303E-01    0.462E-02
DAV:   4    -0.380752533078E+02    0.40936E-04   -0.12622E-04 12948   0.144E-01    0.113E-02
DAV:   5    -0.380752539601E+02   -0.65222E-06   -0.34337E-05 10756   0.589E-02    0.458E-03
DAV:   6    -0.380752541884E+02   -0.22839E-06   -0.52776E-06 12160   0.280E-02    0.348E-03
DAV:   7    -0.380752541705E+02    0.17971E-07   -0.62334E-07 11944   0.171E-02    0.176E-03
DAV:   8    -0.380752542181E+02   -0.47620E-07   -0.24684E-07 15728   0.532E-03    0.534E-04
DAV:   9    -0.380752542301E+02   -0.12029E-07   -0.57940E-08 10752   0.234E-03    0.320E-04
DAV:  10    -0.380752542411E+02   -0.10965E-07   -0.53052E-09  6176   0.872E-04    0.174E-04
DAV:  11    -0.380752542499E+02   -0.87957E-08   -0.22010E-09  6020   0.564E-04
  21 F= -.38075254E+02 E0= -.38074215E+02  d E =-.246151E-03
 curvature:  -3.32 expect dE=-0.478E-03 dE for cont linesearch -0.921E-05
 ZBRENT: extrapolating
 opt :   2.1177  next Energy=   -38.075264 (dE=-0.256E-03)
 bond charge predicted
       N       E                     dE             d eps       ncg     rms          rms(c)
DAV:   1    -0.380752877990E+02   -0.33558E-04   -0.29068E-02  9896   0.103E+00    0.820E-02
DAV:   2    -0.380752885562E+02   -0.75723E-06   -0.13627E-03 11624   0.400E-01    0.390E-02
DAV:   3    -0.380752721445E+02    0.16412E-04   -0.10178E-04 12812   0.130E-01    0.198E-02
DAV:   4    -0.380752645239E+02    0.76206E-05   -0.23148E-05 12988   0.616E-02    0.482E-03
DAV:   5    -0.380752646055E+02   -0.81634E-07   -0.62995E-06 10756   0.252E-02    0.196E-03
DAV:   6    -0.380752646470E+02   -0.41453E-07   -0.96535E-07 12172   0.119E-02    0.149E-03
DAV:   7    -0.380752646512E+02   -0.42464E-08   -0.11299E-07 11040   0.728E-03    0.759E-04
DAV:   8    -0.380752646710E+02   -0.19792E-07   -0.38471E-08  8608   0.229E-03    0.230E-04
DAV:   9    -0.380752646753E+02   -0.42892E-08   -0.16222E-08  6872   0.132E-03
  22 F= -.38075265E+02 E0= -.38074232E+02  d E =-.256576E-03
 curvature:  -3.59 expect dE=-0.728E-03 dE for cont linesearch -0.367E-08
 trial: gam= 0.81056 g(F)=  0.122E-03 g(S)=  0.813E-04 ort = 0.913E-06 (trialstep = 0.100E+01)
 search vector abs. value=  0.740E-03
 bond charge predicted
       N       E                     dE             d eps       ncg     rms          rms(c)
DAV:   1    -0.380753474209E+02   -0.82750E-04   -0.15509E-01  9912   0.224E+00    0.155E-01
DAV:   2    -0.380755097502E+02   -0.16233E-03   -0.56681E-03 11368   0.730E-01    0.883E-02
DAV:   3    -0.380754359717E+02    0.73779E-04   -0.40676E-04 12136   0.230E-01    0.435E-02
DAV:   4    -0.380754024145E+02    0.33557E-04   -0.92815E-05 12596   0.133E-01    0.103E-02
DAV:   5    -0.380754043363E+02   -0.19218E-05   -0.33533E-05 10720   0.486E-02    0.453E-03
DAV:   6    -0.380754043228E+02    0.13464E-07   -0.29721E-06 14452   0.169E-02    0.282E-03
DAV:   7    -0.380754042658E+02    0.57051E-07   -0.39114E-07 13240   0.109E-02    0.156E-03
DAV:   8    -0.380754042449E+02    0.20841E-07   -0.17951E-07 14736   0.539E-03    0.502E-04
DAV:   9    -0.380754042409E+02    0.40527E-08   -0.42576E-08  9628   0.266E-03
  23 F= -.38075404E+02 E0= -.38074387E+02  d E =-.139566E-03
 trial-energy change:   -0.000140  1 .order   -0.000137   -0.000204   -0.000071
 step:   1.4650(harm=  1.5330)  dis= 0.00308  next Energy=   -38.075421 (dE=-0.156E-03)
 bond charge predicted
       N       E                     dE             d eps       ncg     rms          rms(c)
DAV:   1    -0.380754116227E+02   -0.73777E-05   -0.33243E-02  9912   0.104E+00    0.719E-02
DAV:   2    -0.380754465804E+02   -0.34958E-04   -0.12156E-03 11384   0.339E-01    0.410E-02
DAV:   3    -0.380754311400E+02    0.15440E-04   -0.87321E-05 12100   0.107E-01    0.202E-02
DAV:   4    -0.380754241443E+02    0.69957E-05   -0.20102E-05 12588   0.616E-02    0.475E-03
DAV:   5    -0.380754245931E+02   -0.44887E-06   -0.72072E-06 10724   0.224E-02    0.209E-03
DAV:   6    -0.380754245842E+02    0.88980E-08   -0.62305E-07 14460   0.776E-03    0.130E-03
DAV:   7    -0.380754245694E+02    0.14863E-07   -0.80797E-08 11892   0.505E-03    0.715E-04
DAV:   8    -0.380754245595E+02    0.98894E-08   -0.34785E-08  8976   0.254E-03
  24 F= -.38075425E+02 E0= -.38074415E+02  d E =-.159884E-03
 curvature:  -2.74 expect dE=-0.441E-03 dE for cont linesearch -0.237E-06
 trial: gam= 0.77117 g(F)=  0.126E-03 g(S)=  0.346E-04 ort = 0.800E-05 (trialstep = 0.109E+01)
 search vector abs. value=  0.613E-03
 bond charge predicted
       N       E                     dE             d eps       ncg     rms          rms(c)
DAV:   1    -0.380752006165E+02    0.22395E-03   -0.16209E-01  9904   0.223E+00    0.129E-01
DAV:   2    -0.380755679756E+02   -0.36736E-03   -0.58863E-03 11760   0.614E-01    0.681E-02
DAV:   3    -0.380755186692E+02    0.49306E-04   -0.30742E-04 12968   0.196E-01    0.396E-02
DAV:   4    -0.380754933874E+02    0.25282E-04   -0.71997E-05 11860   0.119E-01    0.968E-03
DAV:   5    -0.380754946025E+02   -0.12151E-05   -0.25239E-05 10960   0.546E-02    0.469E-03
DAV:   6    -0.380754947273E+02   -0.12480E-06   -0.40312E-06 12420   0.248E-02    0.337E-03
DAV:   7    -0.380754947002E+02    0.27033E-07   -0.64672E-07 12704   0.144E-02    0.171E-03
DAV:   8    -0.380754947506E+02   -0.50371E-07   -0.27863E-07 13380   0.561E-03    0.643E-04
DAV:   9    -0.380754947589E+02   -0.83114E-08   -0.42475E-08  9796   0.263E-03
  25 F= -.38075495E+02 E0= -.38074516E+02  d E =-.701994E-04
 trial-energy change:   -0.000070  1 .order   -0.000069   -0.000183    0.000044
 step:   0.8853(harm=  0.8812)  dis= 0.00185  next Energy=   -38.075499 (dE=-0.744E-04)
 bond charge predicted
       N       E                     dE             d eps       ncg     rms          rms(c)
DAV:   1    -0.380754884347E+02    0.63159E-05   -0.59067E-03  9904   0.425E-01    0.247E-02
DAV:   2    -0.380755016231E+02   -0.13188E-04   -0.21436E-04 11752   0.117E-01    0.130E-02
DAV:   3    -0.380754998421E+02    0.17810E-05   -0.11102E-05 12980   0.370E-02    0.755E-03
DAV:   4    -0.380754988975E+02    0.94463E-06   -0.25914E-06 11852   0.228E-02    0.185E-03
DAV:   5    -0.380754989288E+02   -0.31285E-07   -0.92171E-07 10928   0.107E-02    0.891E-04
DAV:   6    -0.380754989271E+02    0.16507E-08   -0.15155E-07 12308   0.466E-03    0.646E-04
DAV:   7    -0.380754989154E+02    0.11735E-07   -0.19339E-08  6804   0.268E-03    0.336E-04
DAV:   8    -0.380754989063E+02    0.91295E-08   -0.12259E-08  6188   0.113E-03
  26 F= -.38075499E+02 E0= -.38074514E+02  d E =-.743468E-04
 curvature:  -1.62 expect dE=-0.223E-03 dE for cont linesearch -0.847E-09
 trial: gam= 0.91321 g(F)=  0.117E-03 g(S)=  0.206E-04 ort =-0.567E-06 (trialstep = 0.996E+00)
 search vector abs. value=  0.648E-03
 bond charge predicted
       N       E                     dE             d eps       ncg     rms          rms(c)
DAV:   1    -0.380753915432E+02    0.10737E-03   -0.14597E-01  9880   0.215E+00    0.133E-01
DAV:   2    -0.380756425291E+02   -0.25099E-03   -0.54960E-03 10928   0.667E-01    0.655E-02
DAV:   3    -0.380756099090E+02    0.32620E-04   -0.32387E-04 12804   0.223E-01    0.351E-02
DAV:   4    -0.380755880544E+02    0.21855E-04   -0.57929E-05 12584   0.118E-01    0.944E-03
DAV:   5    -0.380755885630E+02   -0.50858E-06   -0.21599E-05 10972   0.553E-02    0.394E-03
DAV:   6    -0.380755886905E+02   -0.12752E-06   -0.31855E-06 11996   0.222E-02    0.279E-03
DAV:   7    -0.380755886775E+02    0.13030E-07   -0.46445E-07 12672   0.118E-02    0.118E-03
DAV:   8    -0.380755887091E+02   -0.31637E-07   -0.15667E-07 13360   0.451E-03    0.410E-04
DAV:   9    -0.380755887111E+02   -0.20073E-08   -0.29111E-08  8440   0.180E-03
  27 F= -.38075589E+02 E0= -.38074612E+02  d E =-.898048E-04
 trial-energy change:   -0.000090  1 .order   -0.000092   -0.000137   -0.000046
 step:   1.6220(harm=  1.5057)  dis= 0.00362  next Energy=   -38.075603 (dE=-0.104E-03)
 bond charge predicted
       N       E                     dE             d eps       ncg     rms          rms(c)
DAV:   1    -0.380755209346E+02    0.67775E-04   -0.57789E-02  9880   0.135E+00    0.839E-02
DAV:   2    -0.380756199284E+02   -0.98994E-04   -0.21694E-03 10928   0.418E-01    0.411E-02
DAV:   3    -0.380756068520E+02    0.13076E-04   -0.12765E-04 12788   0.140E-01    0.221E-02
DAV:   4    -0.380755981297E+02    0.87223E-05   -0.22869E-05 12576   0.740E-02    0.592E-03
DAV:   5    -0.380755982923E+02   -0.16257E-06   -0.85545E-06 10976   0.349E-02    0.248E-03
DAV:   6    -0.380755983420E+02   -0.49701E-07   -0.12598E-06 11996   0.138E-02    0.176E-03
DAV:   7    -0.380755983431E+02   -0.11360E-08   -0.18064E-07 12540   0.740E-03    0.757E-04
DAV:   8    -0.380755983616E+02   -0.18490E-07   -0.59292E-08 11108   0.281E-03    0.254E-04
DAV:   9    -0.380755983623E+02   -0.72805E-09   -0.12631E-08  6272   0.123E-03
  28 F= -.38075598E+02 E0= -.38074627E+02  d E =-.994561E-04
 curvature:  -3.37 expect dE=-0.181E-03 dE for cont linesearch -0.594E-06
 trial: gam= 0.38381 g(F)=  0.475E-04 g(S)=  0.614E-05 ort =-0.107E-04 (trialstep = 0.112E+01)
 search vector abs. value=  0.141E-03
 bond charge predicted
       N       E                     dE             d eps       ncg     rms          rms(c)
DAV:   1    -0.380755542265E+02    0.44135E-04   -0.39915E-02  9880   0.110E+00    0.524E-02
DAV:   2    -0.380756479306E+02   -0.93704E-04   -0.12849E-03 11304   0.266E-01    0.270E-02
DAV:   3    -0.380756414930E+02    0.64376E-05   -0.57049E-05 12336   0.967E-02    0.159E-02
DAV:   4    -0.380756375461E+02    0.39469E-05   -0.16369E-05 12616   0.676E-02    0.533E-03
DAV:   5    -0.380756376998E+02   -0.15372E-06   -0.59704E-06 12284   0.352E-02    0.228E-03
DAV:   6    -0.380756377251E+02   -0.25343E-07   -0.11395E-06 13436   0.889E-03    0.153E-03
DAV:   7    -0.380756377291E+02   -0.39581E-08   -0.87252E-08 11088   0.350E-03
  29 F= -.38075638E+02 E0= -.38074671E+02  d E =-.393668E-04
 trial-energy change:   -0.000039  1 .order   -0.000035   -0.000056   -0.000015
 step:   1.3602(harm=  1.5358)  dis= 0.00106  next Energy=   -38.075639 (dE=-0.410E-04)
 bond charge predicted
       N       E                     dE             d eps       ncg     rms          rms(c)
DAV:   1    -0.380756363895E+02    0.13356E-05   -0.18256E-03  9884   0.235E-01    0.113E-02
DAV:   2    -0.380756407616E+02   -0.43722E-05   -0.59613E-05 11328   0.573E-02    0.585E-03
DAV:   3    -0.380756404570E+02    0.30466E-06   -0.26491E-06 12368   0.210E-02    0.343E-03
DAV:   4    -0.380756402916E+02    0.16542E-06   -0.76325E-07 12540   0.147E-02    0.118E-03
DAV:   5    -0.380756402957E+02   -0.41045E-08   -0.28334E-07 12272   0.768E-03    0.500E-04
DAV:   6    -0.380756402944E+02    0.12401E-08   -0.52642E-08 10120   0.192E-03
  30 F= -.38075640E+02 E0= -.38074674E+02  d E =-.419321E-04
 curvature:  -1.79 expect dE=-0.793E-04 dE for cont linesearch -0.507E-06
 trial: gam= 0.60704 g(F)=  0.385E-04 g(S)=  0.567E-05 ort = 0.632E-05 (trialstep = 0.117E+01)
 search vector abs. value=  0.104E-03
 bond charge predicted
       N       E                     dE             d eps       ncg     rms          rms(c)
DAV:   1    -0.380755791137E+02    0.61182E-04   -0.30179E-02 10068   0.100E+00    0.511E-02
DAV:   2    -0.380756588774E+02   -0.79764E-04   -0.11908E-03 11904   0.285E-01    0.257E-02
DAV:   3    -0.380756542782E+02    0.45992E-05   -0.68658E-05 12040   0.890E-02    0.157E-02
DAV:   4    -0.380756506763E+02    0.36019E-05   -0.15585E-05 12132   0.422E-02    0.539E-03
DAV:   5    -0.380756506984E+02   -0.22145E-07   -0.43080E-06 11060   0.179E-02    0.211E-03
DAV:   6    -0.380756507422E+02   -0.43768E-07   -0.54488E-07 13136   0.792E-03    0.125E-03
DAV:   7    -0.380756507439E+02   -0.17549E-08   -0.79184E-08 10824   0.490E-03
  31 F= -.38075651E+02 E0= -.38074704E+02  d E =-.104495E-04
 trial-energy change:   -0.000010  1 .order   -0.000009   -0.000056    0.000038
 step:   0.7208(harm=  0.6997)  dis= 0.00081  next Energy=   -38.075658 (dE=-0.176E-04)
 bond charge predicted
       N       E                     dE             d eps       ncg     rms          rms(c)
DAV:   1    -0.380756474738E+02    0.32684E-05   -0.44254E-03 10060   0.383E-01    0.195E-02
DAV:   2    -0.380756589570E+02   -0.11483E-04   -0.17363E-04 11920   0.109E-01    0.983E-03
DAV:   3    -0.380756583016E+02    0.65535E-06   -0.99485E-06 12048   0.341E-02    0.598E-03
DAV:   4    -0.380756577416E+02    0.56002E-06   -0.22578E-06 12148   0.160E-02    0.204E-03
DAV:   5    -0.380756577429E+02   -0.12806E-08   -0.62258E-07 11056   0.682E-03    0.801E-04
DAV:   6    -0.380756577340E+02    0.89312E-08   -0.77893E-08 12152   0.318E-03
  32 F= -.38075658E+02 E0= -.38074704E+02  d E =-.174395E-04
 curvature:  -0.75 expect dE=-0.141E-04 dE for cont linesearch -0.145E-08
 trial: gam= 0.57130 g(F)=  0.143E-04 g(S)=  0.436E-05 ort =-0.447E-06 (trialstep = 0.108E+01)
 search vector abs. value=  0.521E-04
 bond charge predicted
       N       E                     dE             d eps       ncg     rms          rms(c)
DAV:   1    -0.380756597730E+02   -0.20301E-05   -0.12268E-02  9984   0.631E-01    0.365E-02
DAV:   2    -0.380756788905E+02   -0.19117E-04   -0.38505E-04 11836   0.170E-01    0.213E-02
DAV:   3    -0.380756730845E+02    0.58060E-05   -0.22464E-05 12928   0.524E-02    0.102E-02
DAV:   4    -0.380756714206E+02    0.16639E-05   -0.61344E-06 11764   0.291E-02    0.217E-03
DAV:   5    -0.380756715590E+02   -0.13838E-06   -0.20716E-06 11044   0.138E-02    0.139E-03
DAV:   6    -0.380756715542E+02    0.48021E-08   -0.19055E-07 13364   0.530E-03    0.814E-04
DAV:   7    -0.380756715429E+02    0.11254E-07   -0.29353E-08  8224   0.323E-03    0.418E-04
DAV:   8    -0.380756715387E+02    0.42592E-08   -0.16008E-08  6408   0.175E-03
  33 F= -.38075672E+02 E0= -.38074725E+02  d E =-.138047E-04
 trial-energy change:   -0.000014  1 .order   -0.000012   -0.000020   -0.000004
 step:   1.2581(harm=  1.3907)  dis= 0.00077  next Energy=   -38.075672 (dE=-0.142E-04)
 bond charge predicted
       N       E                     dE             d eps       ncg     rms          rms(c)
DAV:   1    -0.380756717692E+02   -0.22632E-06   -0.33783E-04  9988   0.105E-01    0.604E-03
DAV:   2    -0.380756723010E+02   -0.53179E-06   -0.10588E-05 11856   0.282E-02    0.354E-03
DAV:   3    -0.380756721818E+02    0.11923E-06   -0.62133E-07 12900   0.871E-03    0.169E-03
DAV:   4    -0.380756721452E+02    0.36629E-07   -0.17171E-07 11708   0.492E-03    0.363E-04
DAV:   5    -0.380756721493E+02   -0.41750E-08   -0.58207E-08 10684   0.237E-03
  34 F= -.38075672E+02 E0= -.38074727E+02  d E =-.144154E-04
 curvature:  -1.61 expect dE=-0.135E-04 dE for cont linesearch -0.104E-06
 ZBRENT: increasing intervall
 opt :   1.6161  next Energy=   -38.075672 (dE=-0.143E-04)
 bond charge predicted
       N       E                     dE             d eps       ncg     rms          rms(c)
DAV:   1    -0.380756706920E+02    0.14532E-05   -0.13511E-03  9988   0.210E-01    0.122E-02
DAV:   2    -0.380756728297E+02   -0.21377E-05   -0.42531E-05 11816   0.566E-02    0.708E-03
DAV:   3    -0.380756722676E+02    0.56216E-06   -0.25002E-06 12948   0.176E-02    0.339E-03
DAV:   4    -0.380756720989E+02    0.16864E-06   -0.67668E-07 11800   0.960E-03    0.721E-04
DAV:   5    -0.380756721158E+02   -0.16916E-07   -0.22874E-07 11068   0.443E-03    0.458E-04
DAV:   6    -0.380756721138E+02    0.20477E-08   -0.16592E-08  6580   0.164E-03
  35 F= -.38075672E+02 E0= -.38074729E+02  d E =-.143798E-04
 curvature:   2.53 expect dE= 0.299E-04 dE for cont linesearch  0.436E-06
 ZBRENT: bracketing found
 ZBRENT: interpolating
 opt :   1.3942  next Energy=   -38.075672 (dE=-0.145E-04)
 bond charge predicted
       N       E                     dE             d eps       ncg     rms          rms(c)
DAV:   1    -0.380756719438E+02    0.17201E-06   -0.51812E-04  9984   0.130E-01    0.749E-03
DAV:   2    -0.380756727284E+02   -0.78458E-06   -0.16221E-05 11808   0.350E-02    0.438E-03
DAV:   3    -0.380756724096E+02    0.31881E-06   -0.95023E-07 12904   0.109E-02    0.207E-03
DAV:   4    -0.380756723221E+02    0.87467E-07   -0.25979E-07 11836   0.584E-03    0.448E-04
DAV:   5    -0.380756723266E+02   -0.44251E-08   -0.85815E-08 10792   0.260E-03
  36 F= -.38075672E+02 E0= -.38074728E+02  d E =-.145926E-04
 curvature:  -0.73 expect dE=-0.698E-05 dE for cont linesearch -0.811E-09
 trial: gam= 0.32245 g(F)=  0.763E-05 g(S)=  0.198E-05 ort = 0.241E-06 (trialstep = 0.114E+01)
 search vector abs. value=  0.152E-04
 bond charge predicted
       N       E                     dE             d eps       ncg     rms          rms(c)
DAV:   1    -0.380756833081E+02   -0.10986E-04   -0.41317E-03 10016   0.416E-01    0.343E-02
DAV:   2    -0.380756827541E+02    0.55393E-06   -0.24918E-04 11584   0.181E-01    0.160E-02
DAV:   3    -0.380756800380E+02    0.27161E-05   -0.18899E-05 13412   0.560E-02    0.790E-03
DAV:   4    -0.380756785707E+02    0.14673E-05   -0.35108E-06 13176   0.303E-02    0.198E-03
DAV:   5    -0.380756785631E+02    0.76457E-08   -0.13141E-06 10780   0.132E-02    0.859E-04
DAV:   6    -0.380756785657E+02   -0.26403E-08   -0.17274E-07 11828   0.489E-03    0.562E-04
DAV:   7    -0.380756785682E+02   -0.24825E-08   -0.21360E-08  7196   0.316E-03
  37 F= -.38075679E+02 E0= -.38074737E+02  d E =-.624162E-05
 trial-energy change:   -0.000006  1 .order   -0.000006   -0.000011   -0.000001
 step:   1.2056(harm=  1.2195)  dis= 0.00036  next Energy=   -38.075679 (dE=-0.626E-05)
 bond charge predicted
       N       E                     dE             d eps       ncg     rms          rms(c)
DAV:   1    -0.380756786630E+02   -0.97240E-07   -0.13077E-05 10220   0.232E-02    0.192E-03
DAV:   2    -0.380756786716E+02   -0.86411E-08   -0.77343E-07 11648   0.991E-03    0.893E-04
DAV:   3    -0.380756786513E+02    0.20242E-07   -0.56955E-08 10516   0.318E-03    0.442E-04
DAV:   4    -0.380756786423E+02    0.90745E-08   -0.10889E-08  6108   0.183E-03
  38 F= -.38075679E+02 E0= -.38074737E+02  d E =-.631570E-05
 curvature:  -0.92 expect dE=-0.552E-05 dE for cont linesearch -0.113E-07
 trial: gam= 0.59679 g(F)=  0.546E-05 g(S)=  0.509E-06 ort = 0.431E-06 (trialstep = 0.115E+01)
 search vector abs. value=  0.119E-04
 bond charge predicted
       N       E                     dE             d eps       ncg     rms          rms(c)
DAV:   1    -0.380756760421E+02    0.26092E-05   -0.32827E-03 10320   0.346E-01    0.211E-02
DAV:   2    -0.380756825925E+02   -0.65504E-05   -0.14528E-04 12068   0.121E-01    0.105E-02
DAV:   3    -0.380756816004E+02    0.99210E-06   -0.10443E-05 12540   0.376E-02    0.589E-03
DAV:   4    -0.380756809147E+02    0.68574E-06   -0.20452E-06 12332   0.176E-02    0.143E-03
DAV:   5    -0.380756809342E+02   -0.19475E-07   -0.64421E-07 10736   0.688E-03    0.664E-04
DAV:   6    -0.380756809393E+02   -0.51637E-08   -0.52798E-08 10680   0.374E-03
  39 F= -.38075681E+02 E0= -.38074748E+02  d E =-.229704E-05
 trial-energy change:   -0.000002  1 .order   -0.000002   -0.000007    0.000003
 step:   0.8373(harm=  0.7883)  dis= 0.00028  next Energy=   -38.075681 (dE=-0.275E-05)
 bond charge predicted
       N       E                     dE             d eps       ncg     rms          rms(c)
DAV:   1    -0.380756809675E+02   -0.33332E-07   -0.24730E-04 10284   0.950E-02    0.575E-03
DAV:   2    -0.380756814234E+02   -0.45590E-06   -0.10863E-05 12052   0.329E-02    0.285E-03
DAV:   3    -0.380756813826E+02    0.40747E-07   -0.77439E-07 12492   0.102E-02    0.160E-03
DAV:   4    -0.380756813495E+02    0.33142E-07   -0.15210E-07 12296   0.473E-03    0.388E-04
DAV:   5    -0.380756813556E+02   -0.60968E-08   -0.48478E-08 10592   0.184E-03
  40 F= -.38075681E+02 E0= -.38074746E+02  d E =-.271332E-05
 curvature:  -0.74 expect dE=-0.235E-05 dE for cont linesearch -0.900E-11
 trial: gam= 0.63999 g(F)=  0.245E-05 g(S)=  0.721E-06 ort =-0.120E-07 (trialstep = 0.109E+01)
 search vector abs. value=  0.803E-05
 bond charge predicted
       N       E                     dE             d eps       ncg     rms          rms(c)
DAV:   1    -0.380756798169E+02    0.15326E-05   -0.19207E-03 10216   0.255E-01    0.111E-02
DAV:   2    -0.380756837267E+02   -0.39098E-05   -0.60680E-05 11656   0.739E-02    0.582E-03
DAV:   3    -0.380756837102E+02    0.16487E-07   -0.40850E-06 12904   0.232E-02    0.311E-03
DAV:   4    -0.380756835719E+02    0.13836E-06   -0.62421E-07 12772   0.114E-02    0.897E-04
DAV:   5    -0.380756835931E+02   -0.21252E-07   -0.20936E-07 10772   0.380E-03    0.345E-04
DAV:   6    -0.380756835919E+02    0.12283E-08   -0.13735E-08  6188   0.173E-03
  41 F= -.38075684E+02 E0= -.38074752E+02  d E =-.223628E-05
 trial-energy change:   -0.000002  1 .order   -0.000002   -0.000003   -0.000001
 step:   1.4327(harm=  1.4850)  dis= 0.00030  next Energy=   -38.075684 (dE=-0.238E-05)
 bond charge predicted
       N       E                     dE             d eps       ncg     rms          rms(c)
DAV:   1    -0.380756834056E+02    0.18755E-06   -0.18859E-04 10216   0.800E-02    0.350E-03
DAV:   2    -0.380756837865E+02   -0.38097E-06   -0.59733E-06 11640   0.233E-02    0.183E-03
DAV:   3    -0.380756838023E+02   -0.15752E-07   -0.40616E-07 12892   0.745E-03    0.980E-04
DAV:   4    -0.380756837944E+02    0.78244E-08   -0.60088E-08 11028   0.365E-03
  42 F= -.38075684E+02 E0= -.38074754E+02  d E =-.243886E-05
 curvature:  -1.85 expect dE=-0.510E-05 dE for cont linesearch -0.493E-08
 trial: gam= 0.80297 g(F)=  0.185E-05 g(S)=  0.905E-06 ort = 0.146E-06 (trialstep = 0.114E+01)
 search vector abs. value=  0.817E-05
 bond charge predicted
       N       E                     dE             d eps       ncg     rms          rms(c)
DAV:   1    -0.380756856456E+02   -0.18433E-05   -0.19964E-03 10268   0.269E-01    0.181E-02
DAV:   2    -0.380756872989E+02   -0.16533E-05   -0.79240E-05 11756   0.946E-02    0.907E-03
DAV:   3    -0.380756865383E+02    0.76056E-06   -0.59551E-06 13360   0.289E-02    0.464E-03
DAV:   4    -0.380756860770E+02    0.46129E-06   -0.10521E-06 14248   0.143E-02    0.103E-03
DAV:   5    -0.380756860642E+02    0.12855E-07   -0.35169E-07 10672   0.584E-03    0.415E-04
DAV:   6    -0.380756860634E+02    0.78398E-09   -0.38046E-08  9060   0.227E-03
  43 F= -.38075686E+02 E0= -.38074757E+02  d E =-.226892E-05
 trial-energy change:   -0.000002  1 .order   -0.000002   -0.000003   -0.000001
 step:   2.2949(harm=  1.9463)  dis= 0.00050  next Energy=   -38.075687 (dE=-0.291E-05)
 bond charge predicted
       N       E                     dE             d eps       ncg     rms          rms(c)
DAV:   1    -0.380756863613E+02   -0.29710E-06   -0.20513E-03 10268   0.273E-01    0.184E-02
DAV:   2    -0.380756880726E+02   -0.17113E-05   -0.81400E-05 11724   0.959E-02    0.921E-03
DAV:   3    -0.380756872879E+02    0.78475E-06   -0.61222E-06 13360   0.295E-02    0.471E-03
DAV:   4    -0.380756868145E+02    0.47332E-06   -0.10804E-06 14224   0.146E-02    0.104E-03
DAV:   5    -0.380756868022E+02    0.12353E-07   -0.36168E-07 10684   0.604E-03    0.422E-04
DAV:   6    -0.380756868020E+02    0.21873E-09   -0.41233E-08  9248   0.238E-03
  44 F= -.38075687E+02 E0= -.38074760E+02  d E =-.300751E-05
 curvature:  -2.25 expect dE=-0.616E-05 dE for cont linesearch -0.824E-08
 trial: gam= 1.14946 g(F)=  0.163E-05 g(S)=  0.111E-05 ort =-0.173E-06 (trialstep = 0.853E+00)
 search vector abs. value=  0.131E-04
 bond charge predicted
       N       E                     dE             d eps       ncg     rms          rms(c)
DAV:   1    -0.380756855663E+02    0.12358E-05   -0.18699E-03 10224   0.256E-01    0.145E-02
DAV:   2    -0.380756883738E+02   -0.28074E-05   -0.67019E-05 11464   0.841E-02    0.756E-03
DAV:   3    -0.380756882355E+02    0.13826E-06   -0.49789E-06 13164   0.269E-02    0.398E-03
DAV:   4    -0.380756880576E+02    0.17785E-06   -0.80059E-07 13368   0.132E-02    0.961E-04
DAV:   5    -0.380756880925E+02   -0.34858E-07   -0.26175E-07 10696   0.489E-03    0.395E-04
DAV:   6    -0.380756880945E+02   -0.19713E-08   -0.26221E-08  8128   0.207E-03
  45 F= -.38075688E+02 E0= -.38074763E+02  d E =-.129252E-05
 trial-energy change:   -0.000001  1 .order   -0.000001   -0.000002   -0.000000
 step:   0.9150(harm=  0.9378)  dis= 0.00024  next Energy=   -38.075688 (dE=-0.130E-05)
 bond charge predicted
       N       E                     dE             d eps       ncg     rms          rms(c)
DAV:   1    -0.380756880875E+02    0.50463E-08   -0.10058E-05 10336   0.189E-02    0.109E-03
DAV:   2    -0.380756881011E+02   -0.13627E-07   -0.36365E-07 11400   0.631E-03    0.566E-04
DAV:   3    -0.380756881078E+02   -0.66875E-08   -0.24741E-08  8436   0.213E-03
  46 F= -.38075688E+02 E0= -.38074763E+02  d E =-.130581E-05
 curvature:  -2.25 expect dE=-0.255E-05 dE for cont linesearch -0.624E-08
 trial: gam= 0.19777 g(F)=  0.959E-06 g(S)=  0.174E-06 ort = 0.191E-06 (trialstep = 0.865E+00)
 search vector abs. value=  0.172E-05
 bond charge predicted
       N       E                     dE             d eps       ncg     rms          rms(c)
DAV:   1    -0.380756891670E+02   -0.10659E-05   -0.27015E-04 10356   0.117E-01    0.105E-02
DAV:   2    -0.380756888080E+02    0.35897E-06   -0.21341E-05 11536   0.570E-02    0.451E-03
DAV:   3    -0.380756887446E+02    0.63380E-07   -0.16747E-06 14436   0.156E-02    0.228E-03
DAV:   4    -0.380756886956E+02    0.49003E-07   -0.23409E-07 14052   0.709E-03    0.739E-04
DAV:   5    -0.380756887113E+02   -0.15686E-07   -0.78454E-08 10736   0.265E-03    0.232E-04
DAV:   6    -0.380756887124E+02   -0.10541E-08   -0.99002E-09  6084   0.131E-03
  47 F= -.38075689E+02 E0= -.38074763E+02  d E =-.604585E-06
 trial-energy change:   -0.000001  1 .order   -0.000001   -0.000001   -0.000000
 step:   1.0057(harm=  1.0057)  dis= 0.00009  next Energy=   -38.075689 (dE=-0.589E-06)
 bond charge predicted
       N       E                     dE             d eps       ncg     rms          rms(c)
DAV:   1    -0.380756887198E+02   -0.84970E-08   -0.71640E-06 10404   0.190E-02    0.173E-03
DAV:   2    -0.380756887057E+02    0.14142E-07   -0.56635E-07 11632   0.935E-03    0.735E-04
DAV:   3    -0.380756887140E+02   -0.83151E-08   -0.41807E-08 10048   0.259E-03
  48 F= -.38075689E+02 E0= -.38074763E+02  d E =-.606201E-06
 curvature:  -0.74 expect dE=-0.816E-06 dE for cont linesearch -0.123E-08
 trial: gam= 1.06798 g(F)=  0.709E-06 g(S)=  0.394E-06 ort =-0.535E-07 (trialstep = 0.521E+00)
 search vector abs. value=  0.295E-05
 bond charge predicted
       N       E                     dE             d eps       ncg     rms          rms(c)
DAV:   1    -0.380756888339E+02   -0.12823E-06   -0.18280E-04  9876   0.735E-02    0.316E-03
DAV:   2    -0.380756892208E+02   -0.38692E-06   -0.49782E-06 11336   0.169E-02    0.170E-03
DAV:   3    -0.380756891903E+02    0.30527E-07   -0.25500E-07 12112   0.498E-03    0.104E-03
DAV:   4    -0.380756891800E+02    0.10305E-07   -0.57410E-08 11372   0.297E-03    0.322E-04
DAV:   5    -0.380756891788E+02    0.11737E-08   -0.18898E-08  6400   0.140E-03
  49 F= -.38075689E+02 E0= -.38074763E+02  d E =-.464829E-06
 trial-energy change:   -0.000000  1 .order   -0.000000   -0.000001   -0.000000
 step:   1.2529(harm=  1.2529)  dis= 0.00015  next Energy=   -38.075689 (dE=-0.655E-06)
 bond charge predicted
       N       E                     dE             d eps       ncg     rms          rms(c)
DAV:   1    -0.380756887489E+02    0.43112E-06   -0.36084E-04  9872   0.103E-01    0.444E-03
DAV:   2    -0.380756895062E+02   -0.75734E-06   -0.97958E-06 11328   0.235E-02    0.238E-03
DAV:   3    -0.380756894508E+02    0.55371E-07   -0.49055E-07 12160   0.684E-03    0.144E-03
DAV:   4    -0.380756894277E+02    0.23109E-07   -0.11310E-07 12636   0.413E-03    0.452E-04
DAV:   5    -0.380756894270E+02    0.72032E-09   -0.39557E-08 10492   0.183E-03
  50 F= -.38075689E+02 E0= -.38074763E+02  d E =-.713025E-06
 curvature:  -1.77 expect dE=-0.127E-05 dE for cont linesearch -0.788E-09
 trial: gam= 0.65195 g(F)=  0.606E-06 g(S)=  0.111E-06 ort =-0.363E-07 (trialstep = 0.667E+00)
 search vector abs. value=  0.193E-05
 bond charge predicted
       N       E                     dE             d eps       ncg     rms          rms(c)
DAV:   1    -0.380756896287E+02   -0.20096E-06   -0.17996E-04  9972   0.764E-02    0.421E-03
DAV:   2    -0.380756898408E+02   -0.21213E-06   -0.48912E-06 11280   0.192E-02    0.235E-03
DAV:   3    -0.380756897951E+02    0.45729E-07   -0.30767E-07 12908   0.684E-03    0.121E-03
DAV:   4    -0.380756897761E+02    0.18976E-07   -0.73288E-08 11152   0.375E-03    0.236E-04
DAV:   5    -0.380756897790E+02   -0.29031E-08   -0.23820E-08  6856   0.174E-03
  51 F= -.38075690E+02 E0= -.38074764E+02  d E =-.352012E-06
 trial-energy change:   -0.000000  1 .order   -0.000000   -0.000000   -0.000000
 step:   1.3236(harm=  1.3236)  dis= 0.00014  next Energy=   -38.075690 (dE=-0.459E-06)
 bond charge predicted
       N       E                     dE             d eps       ncg     rms          rms(c)
DAV:   1    -0.380756897743E+02    0.18013E-08   -0.17399E-04  9972   0.751E-02    0.415E-03
DAV:   2    -0.380756899771E+02   -0.20281E-06   -0.47204E-06 11296   0.188E-02    0.231E-03
DAV:   3    -0.380756899330E+02    0.44071E-07   -0.29536E-07 12624   0.648E-03    0.119E-03
DAV:   4    -0.380756899133E+02    0.19776E-07   -0.71379E-08 11160   0.350E-03    0.228E-04
DAV:   5    -0.380756899166E+02   -0.33551E-08   -0.22999E-08  6544   0.157E-03
  52 F= -.38075690E+02 E0= -.38074764E+02  d E =-.489629E-06
 curvature:  -1.84 expect dE=-0.777E-06 dE for cont linesearch -0.129E-08
 trial: gam= 0.49458 g(F)=  0.348E-06 g(S)=  0.752E-07 ort = 0.367E-07 (trialstep = 0.799E+00)
 search vector abs. value=  0.930E-06
 bond charge predicted
       N       E                     dE             d eps       ncg     rms          rms(c)
DAV:   1    -0.380756901188E+02   -0.20552E-06   -0.11479E-04 10264   0.632E-02    0.368E-03
DAV:   2    -0.380756902600E+02   -0.14125E-06   -0.38200E-06 11728   0.196E-02    0.207E-03
DAV:   3    -0.380756901914E+02    0.68617E-07   -0.27573E-07 13172   0.605E-03    0.104E-03
DAV:   4    -0.380756901503E+02    0.41111E-07   -0.51349E-08 10728   0.308E-03    0.202E-04
DAV:   5    -0.380756901468E+02    0.35061E-08   -0.19050E-08  6052   0.128E-03
  53 F= -.38075690E+02 E0= -.38074764E+02  d E =-.230182E-06
 trial-energy change:   -0.000000  1 .order   -0.000000   -0.000000   -0.000000
 step:   1.5770(harm=  1.5770)  dis= 0.00012  next Energy=   -38.075690 (dE=-0.348E-06)
 bond charge predicted
       N       E                     dE             d eps       ncg     rms          rms(c)
DAV:   1    -0.380756901855E+02   -0.35172E-07   -0.10905E-04 10264   0.616E-02    0.359E-03
DAV:   2    -0.380756903198E+02   -0.13435E-06   -0.36215E-06 11744   0.191E-02    0.202E-03
DAV:   3    -0.380756902545E+02    0.65379E-07   -0.26062E-07 13164   0.580E-03    0.101E-03
DAV:   4    -0.380756902163E+02    0.38161E-07   -0.47469E-08 10476   0.299E-03    0.194E-04
DAV:   5    -0.380756902124E+02    0.38635E-08   -0.18294E-08  6020   0.125E-03
  54 F= -.38075690E+02 E0= -.38074765E+02  d E =-.295806E-06
 curvature:  -1.66 expect dE=-0.457E-06 dE for cont linesearch -0.310E-09
 trial: gam= 0.69085 g(F)=  0.191E-06 g(S)=  0.835E-07 ort = 0.132E-07 (trialstep = 0.954E+00)
 search vector abs. value=  0.737E-06
 bond charge predicted
       N       E                     dE             d eps       ncg     rms          rms(c)
DAV:   1    -0.380756902795E+02   -0.63167E-07   -0.13380E-04 10216   0.750E-02    0.538E-03
DAV:   2    -0.380756903561E+02   -0.76643E-07   -0.73245E-06 11380   0.319E-02    0.223E-03
DAV:   3    -0.380756903656E+02   -0.95006E-08   -0.56692E-07 13536   0.937E-03    0.116E-03
DAV:   4    -0.380756903645E+02    0.11551E-08   -0.82801E-08 11452   0.382E-03
  55 F= -.38075690E+02 E0= -.38074765E+02  d E =-.152018E-06
 trial-energy change:   -0.000000  1 .order   -0.000000   -0.000000    0.000000
 step:   0.8526(harm=  0.7741)  dis= 0.00005  next Energy=   -38.075690 (dE=-0.155E-06)
 bond charge predicted
       N       E                     dE             d eps       ncg     rms          rms(c)
DAV:   1    -0.380756903696E+02   -0.40050E-08   -0.15294E-06 10316   0.808E-03    0.541E-04
DAV:   2    -0.380756903731E+02   -0.34647E-08   -0.96094E-08 10568   0.353E-03
  56 F= -.38075690E+02 E0= -.38074765E+02  d E =-.160643E-06
 curvature:  -0.81 expect dE=-0.166E-06 dE for cont linesearch -0.320E-07
 trial: gam= 0.21926 g(F)=  0.157E-06 g(S)=  0.464E-07 ort = 0.170E-06 (trialstep = 0.934E+00)
 search vector abs. value=  0.314E-06
 bond charge predicted
       N       E                     dE             d eps       ncg     rms          rms(c)
DAV:   1    -0.380756905279E+02   -0.15832E-06   -0.54043E-05 10116   0.483E-02    0.419E-03
DAV:   2    -0.380756904683E+02    0.59600E-07   -0.33666E-06 11360   0.220E-02    0.198E-03
DAV:   3    -0.380756904740E+02   -0.56925E-08   -0.27404E-07 14140   0.687E-03    0.970E-04
DAV:   4    -0.380756904811E+02   -0.70518E-08   -0.50663E-08 10128   0.288E-03
  57 F= -.38075690E+02 E0= -.38074765E+02  d E =-.108003E-06
 trial-energy change:   -0.000000  1 .order   -0.000000   -0.000000    0.000000
 step:   0.7898(harm=  0.7898)  dis= 0.00004  next Energy=   -38.075690 (dE=-0.952E-07)
 bond charge predicted
       N       E                     dE             d eps       ncg     rms          rms(c)
DAV:   1    -0.380756904934E+02   -0.19421E-07   -0.13011E-06 10196   0.736E-03    0.628E-04
DAV:   2    -0.380756904929E+02    0.52069E-09   -0.84977E-08 10700   0.349E-03
  58 F= -.38075690E+02 E0= -.38074765E+02  d E =-.119851E-06
 curvature:  -0.51 expect dE=-0.334E-07 dE for cont linesearch -0.120E-07
 trial: gam= 0.06712 g(F)=  0.612E-07 g(S)=  0.366E-08 ort = 0.856E-07 (trialstep = 0.905E+00)
 search vector abs. value=  0.779E-07
 reached required accuracy - stopping structural energy minimisation
 writing wavefunctions
Tue Jan  4 00:09:14 CST 2022
