Mon Jan  3 23:27:28 CST 2022
 running on   48 total cores
 distrk:  each k-point on   48 cores,    1 groups
 distr:  one band on   24 cores,    2 groups
 using from now: INCAR     
 vasp.5.3.5 31Mar14 (build Jan 11 2016 19:50:55) complex                        
  
 POSCAR found type information on POSCAR  Zn Ga N  O 
 POSCAR found :  4 types and       8 ions
 scaLAPACK will be used

 ----------------------------------------------------------------------------- 
|                                                                             |
|           W    W    AA    RRRRR   N    N  II  N    N   GGGG   !!!           |
|           W    W   A  A   R    R  NN   N  II  NN   N  G    G  !!!           |
|           W    W  A    A  R    R  N N  N  II  N N  N  G       !!!           |
|           W WW W  AAAAAA  RRRRR   N  N N  II  N  N N  G  GGG   !            |
|           WW  WW  A    A  R   R   N   NN  II  N   NN  G    G                |
|           W    W  A    A  R    R  N    N  II  N    N   GGGG   !!!           |
|                                                                             |
|      For optimal performance we recommend to set                            |
|        NCORE= 4 - approx SQRT( number of cores)                             |
|      NCORE specifies how many cores store one orbital (NPAR=cpu/NCORE).     |
|      This setting can  greatly improve the performance of VASP for DFT.     |
|      The default, NPAR=number of cores might be grossly inefficient         |
|      on modern multi-core architectures or massively parallel machines.     |
|      Do your own testing !!!!                                               |
|      Unfortunately you need to use the default for GW and RPA calculations. |
|      (for HF NCORE is supported but not extensively tested yet)             |
|                                                                             |
 ----------------------------------------------------------------------------- 

 LDA part: xc-table for Pade appr. of Perdew
 POSCAR, INCAR and KPOINTS ok, starting setup
 WARNING: small aliasing (wrap around) errors must be expected
 FFT: planning ...
 WAVECAR not read
 entering main loop
       N       E                     dE             d eps       ncg     rms          rms(c)
DAV:   1     0.887619569572E+03    0.88762E+03   -0.41339E+04 10168   0.318E+03
DAV:   2     0.143867307770E+03   -0.74375E+03   -0.71525E+03  9952   0.763E+02
DAV:   3    -0.278625667178E+02   -0.17173E+03   -0.16660E+03 11384   0.260E+02
DAV:   4    -0.434105714482E+02   -0.15548E+02   -0.15384E+02 12492   0.792E+01
DAV:   5    -0.438961200438E+02   -0.48555E+00   -0.48321E+00 12448   0.137E+01    0.159E+01
DAV:   6    -0.369197152989E+02    0.69764E+01   -0.21577E+01 19020   0.803E+01    0.761E+00
DAV:   7    -0.374914369429E+02   -0.57172E+00   -0.82740E+00 10676   0.195E+01    0.504E+00
DAV:   8    -0.374129656959E+02    0.78471E-01   -0.13203E+00 16140   0.989E+00    0.231E+00
DAV:   9    -0.373627203024E+02    0.50245E-01   -0.30081E-01 14676   0.758E+00    0.614E-01
DAV:  10    -0.373664106514E+02   -0.36903E-02   -0.57183E-02 11768   0.268E+00    0.356E-01
DAV:  11    -0.373676908440E+02   -0.12802E-02   -0.95163E-03 12648   0.117E+00    0.179E-01
DAV:  12    -0.373682829305E+02   -0.59209E-03   -0.21929E-03 11748   0.734E-01    0.689E-02
DAV:  13    -0.373685141708E+02   -0.23124E-03   -0.81659E-04 12632   0.364E-01    0.384E-02
DAV:  14    -0.373685456137E+02   -0.31443E-04   -0.18051E-04 11900   0.192E-01    0.180E-02
DAV:  15    -0.373685820346E+02   -0.36421E-04   -0.83061E-05 11004   0.104E-01    0.116E-02
DAV:  16    -0.373685899807E+02   -0.79461E-05   -0.23248E-05 11872   0.799E-02    0.387E-03
DAV:  17    -0.373685913202E+02   -0.13395E-05   -0.57879E-06 11916   0.349E-02    0.203E-03
DAV:  18    -0.373685916347E+02   -0.31442E-06   -0.14336E-06 11860   0.165E-02    0.122E-03
DAV:  19    -0.373685916865E+02   -0.51803E-07   -0.28531E-07 11272   0.804E-03    0.528E-04
DAV:  20    -0.373685916792E+02    0.72328E-08   -0.78352E-08 11924   0.277E-03
   1 F= -.37368592E+02 E0= -.37368524E+02  d E =-.373686E+02
 curvature:   0.00 expect dE= 0.000E+00 dE for cont linesearch  0.000E+00
 trial: gam= 0.00000 g(F)=  0.164E-04 g(S)=  0.385E-02 ort = 0.000E+00 (trialstep = 0.100E+01)
 search vector abs. value=  0.387E-02
 bond charge predicted
       N       E                     dE             d eps       ncg     rms          rms(c)
DAV:   1    -0.373958332775E+02   -0.27242E-01   -0.50759E-01 13264   0.962E+00    0.115E+00
DAV:   2    -0.373758013614E+02    0.20032E-01   -0.10225E-01 12544   0.535E+00    0.512E-01
DAV:   3    -0.373717707618E+02    0.40306E-02   -0.89100E-03 15480   0.136E+00    0.235E-01
DAV:   4    -0.373705030492E+02    0.12677E-02   -0.18963E-03 15304   0.785E-01    0.553E-02
DAV:   5    -0.373705053004E+02   -0.22512E-05   -0.88707E-04 10800   0.362E-01    0.238E-02
DAV:   6    -0.373705142969E+02   -0.89965E-05   -0.14322E-04 11932   0.144E-01    0.202E-02
DAV:   7    -0.373705141949E+02    0.10206E-06   -0.13150E-05 11960   0.809E-02    0.128E-02
DAV:   8    -0.373705153690E+02   -0.11741E-05   -0.70471E-06 16060   0.308E-02    0.313E-03
DAV:   9    -0.373705153803E+02   -0.11295E-07   -0.23567E-06 13840   0.215E-02    0.144E-03
DAV:  10    -0.373705154598E+02   -0.79488E-07   -0.38785E-07 11032   0.862E-03    0.937E-04
DAV:  11    -0.373705155155E+02   -0.55764E-07   -0.11475E-07 12424   0.370E-03    0.340E-04
DAV:  12    -0.373705155369E+02   -0.21347E-07   -0.20835E-08  7488   0.154E-03    0.196E-04
DAV:  13    -0.373705155360E+02    0.90859E-09   -0.51461E-09  6080   0.103E-03
   2 F= -.37370516E+02 E0= -.37370442E+02  d E =-.192386E-02
 trial-energy change:   -0.001924  1 .order   -0.001937   -0.003870   -0.000005
 step:   1.0014(harm=  1.0013)  dis= 0.00036  next Energy=   -37.370516 (dE=-0.192E-02)
 bond charge predicted
       N       E                     dE             d eps       ncg     rms          rms(c)
DAV:   1    -0.373705156022E+02   -0.65364E-07   -0.95222E-07 13296   0.131E-02    0.159E-03
DAV:   2    -0.373705155670E+02    0.35288E-07   -0.19489E-07 11728   0.737E-03    0.696E-04
DAV:   3    -0.373705155460E+02    0.20961E-07   -0.12111E-08  5900   0.195E-03    0.322E-04
DAV:   4    -0.373705155345E+02    0.11471E-07   -0.68266E-09  5756   0.124E-03    0.105E-04
DAV:   5    -0.373705155330E+02    0.15566E-08   -0.35094E-09  5620   0.903E-04
   3 F= -.37370516E+02 E0= -.37370442E+02  d E =-.192385E-02
 curvature:  -0.50 expect dE=-0.797E-03 dE for cont linesearch -0.150E-09
 trial: gam= 0.41168 g(F)=  0.931E-03 g(S)=  0.661E-03 ort =-0.108E-05 (trialstep = 0.100E+01)
 search vector abs. value=  0.225E-02
 bond charge predicted
       N       E                     dE             d eps       ncg     rms          rms(c)
DAV:   1    -0.373742639850E+02   -0.37485E-02   -0.31419E-01  9876   0.328E+00    0.401E-01
DAV:   2    -0.373727488647E+02    0.15151E-02   -0.11965E-02 12104   0.119E+00    0.241E-01
DAV:   3    -0.373714793188E+02    0.12695E-02   -0.21256E-03 12304   0.766E-01    0.443E-02
DAV:   4    -0.373715163758E+02   -0.37057E-04   -0.77843E-04 10972   0.451E-01    0.209E-02
DAV:   5    -0.373715299276E+02   -0.13552E-04   -0.20042E-04 12112   0.178E-01    0.147E-02
DAV:   6    -0.373715295235E+02    0.40413E-06   -0.26366E-05 12604   0.117E-01    0.730E-03
DAV:   7    -0.373715300782E+02   -0.55471E-06   -0.88985E-06 14192   0.295E-02    0.275E-03
DAV:   8    -0.373715301150E+02   -0.36823E-07   -0.13434E-06 13964   0.177E-02    0.149E-03
DAV:   9    -0.373715301325E+02   -0.17464E-07   -0.28238E-07 13308   0.110E-02    0.813E-04
DAV:  10    -0.373715301380E+02   -0.55461E-08   -0.93914E-08 12648   0.344E-03
   4 F= -.37371530E+02 E0= -.37371459E+02  d E =-.101461E-02
 trial-energy change:   -0.001015  1 .order   -0.001009   -0.001592   -0.000426
 step:   1.3516(harm=  1.3655)  dis= 0.00311  next Energy=   -37.371605 (dE=-0.109E-02)
 bond charge predicted
       N       E                     dE             d eps       ncg     rms          rms(c)
DAV:   1    -0.373719427964E+02   -0.41266E-03   -0.38759E-02  9896   0.115E+00    0.141E-01
DAV:   2    -0.373717562177E+02    0.18658E-03   -0.14764E-03 12104   0.415E-01    0.848E-02
DAV:   3    -0.373715993739E+02    0.15684E-03   -0.26002E-04 12292   0.262E-01    0.153E-02
DAV:   4    -0.373716040362E+02   -0.46623E-05   -0.96608E-05 10956   0.154E-01    0.734E-03
DAV:   5    -0.373716055907E+02   -0.15544E-05   -0.24343E-05 12128   0.629E-02    0.524E-03
DAV:   6    -0.373716055185E+02    0.72162E-07   -0.32368E-06 12576   0.418E-02    0.262E-03
DAV:   7    -0.373716055715E+02   -0.52949E-07   -0.11453E-06 14096   0.962E-03    0.990E-04
DAV:   8    -0.373716055659E+02    0.55747E-08   -0.15460E-07 13612   0.550E-03    0.508E-04
DAV:   9    -0.373716055691E+02   -0.31914E-08   -0.27981E-08  7972   0.385E-03
   5 F= -.37371606E+02 E0= -.37371535E+02  d E =-.109004E-02
 curvature:  -0.96 expect dE=-0.821E-03 dE for cont linesearch -0.113E-06
 trial: gam= 0.52817 g(F)=  0.632E-03 g(S)=  0.221E-03 ort = 0.162E-04 (trialstep = 0.107E+01)
 search vector abs. value=  0.150E-02
 bond charge predicted
       N       E                     dE             d eps       ncg     rms          rms(c)
DAV:   1    -0.373734618691E+02   -0.18563E-02   -0.27246E-01 10140   0.300E+00    0.300E-01
DAV:   2    -0.373727804038E+02    0.68147E-03   -0.80350E-03 12028   0.986E-01    0.180E-01
DAV:   3    -0.373721630814E+02    0.61732E-03   -0.13908E-03 13072   0.618E-01    0.497E-02
DAV:   4    -0.373721601510E+02    0.29303E-05   -0.43949E-04 10884   0.417E-01    0.167E-02
DAV:   5    -0.373721682658E+02   -0.81147E-05   -0.11711E-04 12172   0.135E-01    0.103E-02
DAV:   6    -0.373721688006E+02   -0.53485E-06   -0.16282E-05 12124   0.776E-02    0.538E-03
DAV:   7    -0.373721690992E+02   -0.29854E-06   -0.44852E-06 15192   0.378E-02    0.228E-03
DAV:   8    -0.373721690993E+02   -0.11187E-09   -0.12500E-06 13984   0.261E-02    0.100E-03
DAV:   9    -0.373721691251E+02   -0.25781E-07   -0.26100E-07 10816   0.676E-03    0.572E-04
DAV:  10    -0.373721691374E+02   -0.12312E-07   -0.69026E-08 10368   0.383E-03    0.286E-04
DAV:  11    -0.373721691419E+02   -0.45652E-08   -0.91837E-09  6156   0.228E-03
   6 F= -.37372169E+02 E0= -.37372099E+02  d E =-.563573E-03
 trial-energy change:   -0.000564  1 .order   -0.000560   -0.000922   -0.000199
 step:   1.3548(harm=  1.3645)  dis= 0.00367  next Energy=   -37.372196 (dE=-0.590E-03)
 bond charge predicted
       N       E                     dE             d eps       ncg     rms          rms(c)
DAV:   1    -0.373722878030E+02   -0.11867E-03   -0.19208E-02 10156   0.798E-01    0.796E-02
DAV:   2    -0.373722397549E+02    0.48048E-04   -0.56820E-04 12028   0.261E-01    0.480E-02
DAV:   3    -0.373721963569E+02    0.43398E-04   -0.97343E-05 12996   0.164E-01    0.131E-02
DAV:   4    -0.373721961813E+02    0.17559E-06   -0.31123E-05 10868   0.111E-01    0.441E-03
DAV:   5    -0.373721967950E+02   -0.61371E-06   -0.84409E-06 12248   0.358E-02    0.275E-03
DAV:   6    -0.373721968604E+02   -0.65420E-07   -0.11624E-06 12120   0.206E-02    0.144E-03
DAV:   7    -0.373721969034E+02   -0.42986E-07   -0.32728E-07 15036   0.986E-03    0.636E-04
DAV:   8    -0.373721969009E+02    0.25170E-08   -0.89721E-08 12200   0.678E-03
   7 F= -.37372197E+02 E0= -.37372126E+02  d E =-.591332E-03
 curvature:  -1.18 expect dE=-0.301E-03 dE for cont linesearch -0.301E-07
 trial: gam= 0.31109 g(F)=  0.229E-03 g(S)=  0.257E-04 ort = 0.616E-05 (trialstep = 0.113E+01)
 search vector abs. value=  0.403E-03
 bond charge predicted
       N       E                     dE             d eps       ncg     rms          rms(c)
DAV:   1    -0.373723549148E+02   -0.15801E-03   -0.95615E-02  9912   0.177E+00    0.115E-01
DAV:   2    -0.373724315214E+02   -0.76607E-04   -0.28869E-03 11488   0.487E-01    0.697E-02
DAV:   3    -0.373723654130E+02    0.66108E-04   -0.29180E-04 13880   0.183E-01    0.285E-02
DAV:   4    -0.373723546579E+02    0.10755E-04   -0.63632E-05 11348   0.112E-01    0.662E-03
DAV:   5    -0.373723556277E+02   -0.96975E-06   -0.15821E-05 11368   0.524E-02    0.404E-03
DAV:   6    -0.373723557180E+02   -0.90330E-07   -0.28954E-06 12220   0.309E-02    0.264E-03
DAV:   7    -0.373723557382E+02   -0.20195E-07   -0.55715E-07 12500   0.149E-02    0.114E-03
DAV:   8    -0.373723557730E+02   -0.34783E-07   -0.20801E-07 15064   0.414E-03    0.467E-04
DAV:   9    -0.373723557744E+02   -0.14147E-08   -0.31327E-08  8632   0.185E-03
   8 F= -.37372356E+02 E0= -.37372286E+02  d E =-.158874E-03
 trial-energy change:   -0.000159  1 .order   -0.000161   -0.000289   -0.000033
 step:   1.2807(harm=  1.2722)  dis= 0.00189  next Energy=   -37.372358 (dE=-0.161E-03)
 bond charge predicted
       N       E                     dE             d eps       ncg     rms          rms(c)
DAV:   1    -0.373723579069E+02   -0.21339E-05   -0.17677E-03  9932   0.240E-01    0.157E-02
DAV:   2    -0.373723593584E+02   -0.14515E-05   -0.53121E-05 11524   0.656E-02    0.945E-03
DAV:   3    -0.373723580311E+02    0.13273E-05   -0.52127E-06 13692   0.252E-02    0.382E-03
DAV:   4    -0.373723578518E+02    0.17937E-06   -0.12251E-06 11400   0.166E-02    0.890E-04
DAV:   5    -0.373723578676E+02   -0.15807E-07   -0.29682E-07 11280   0.760E-03    0.551E-04
DAV:   6    -0.373723578707E+02   -0.31182E-08   -0.57017E-08 10168   0.429E-03
   9 F= -.37372358E+02 E0= -.37372288E+02  d E =-.160970E-03
 curvature:  -1.00 expect dE=-0.722E-04 dE for cont linesearch -0.138E-07
 trial: gam= 0.29914 g(F)=  0.652E-04 g(S)=  0.720E-05 ort =-0.236E-05 (trialstep = 0.116E+01)
 search vector abs. value=  0.107E-03
 bond charge predicted
       N       E                     dE             d eps       ncg     rms          rms(c)
DAV:   1    -0.373724284023E+02   -0.70535E-04   -0.27847E-02  9892   0.982E-01    0.747E-02
DAV:   2    -0.373724443627E+02   -0.15960E-04   -0.10303E-03 12000   0.328E-01    0.411E-02
DAV:   3    -0.373724206113E+02    0.23751E-04   -0.10398E-04 13296   0.107E-01    0.196E-02
DAV:   4    -0.373724148530E+02    0.57584E-05   -0.21568E-05 11792   0.569E-02    0.336E-03
DAV:   5    -0.373724154332E+02   -0.58028E-06   -0.70377E-06 11412   0.265E-02    0.247E-03
DAV:   6    -0.373724154515E+02   -0.18297E-07   -0.60821E-07 12388   0.146E-02    0.150E-03
DAV:   7    -0.373724154790E+02   -0.27451E-07   -0.14978E-07 13284   0.774E-03    0.546E-04
DAV:   8    -0.373724154920E+02   -0.13060E-07   -0.47217E-08 10248   0.260E-03    0.278E-04
DAV:   9    -0.373724154947E+02   -0.26366E-08   -0.13436E-08  6124   0.115E-03
  10 F= -.37372415E+02 E0= -.37372346E+02  d E =-.576240E-04
 trial-energy change:   -0.000058  1 .order   -0.000056   -0.000083   -0.000028
 step:   1.6216(harm=  1.7583)  dis= 0.00153  next Energy=   -37.372421 (dE=-0.634E-04)
 bond charge predicted
       N       E                     dE             d eps       ncg     rms          rms(c)
DAV:   1    -0.373724246911E+02   -0.91990E-05   -0.44609E-03  9892   0.393E-01    0.299E-02
DAV:   2    -0.373724273447E+02   -0.26536E-05   -0.16459E-04 11992   0.131E-01    0.164E-02
DAV:   3    -0.373724234474E+02    0.38973E-05   -0.16586E-05 13320   0.428E-02    0.781E-03
DAV:   4    -0.373724225420E+02    0.90540E-06   -0.34114E-06 11744   0.226E-02    0.134E-03
DAV:   5    -0.373724226355E+02   -0.93520E-07   -0.11289E-06 11392   0.107E-02    0.988E-04
DAV:   6    -0.373724226422E+02   -0.67139E-08   -0.97520E-08 11592   0.603E-03
  11 F= -.37372423E+02 E0= -.37372354E+02  d E =-.647715E-04
 curvature:  -1.24 expect dE=-0.447E-04 dE for cont linesearch -0.285E-06
 trial: gam= 0.41259 g(F)=  0.303E-04 g(S)=  0.560E-05 ort = 0.495E-05 (trialstep = 0.125E+01)
 search vector abs. value=  0.583E-04
 bond charge predicted
       N       E                     dE             d eps       ncg     rms          rms(c)
DAV:   1    -0.373724599157E+02   -0.37280E-04   -0.17905E-02  9888   0.779E-01    0.550E-02
DAV:   2    -0.373724658050E+02   -0.58894E-05   -0.58144E-04 12072   0.252E-01    0.311E-02
DAV:   3    -0.373724553773E+02    0.10428E-04   -0.59566E-05 11884   0.901E-02    0.150E-02
DAV:   4    -0.373724521529E+02    0.32244E-05   -0.13199E-05 11856   0.559E-02    0.357E-03
DAV:   5    -0.373724524389E+02   -0.28593E-06   -0.43653E-06 11204   0.240E-02    0.169E-03
DAV:   6    -0.373724524682E+02   -0.29319E-07   -0.62271E-07 12712   0.112E-02    0.107E-03
DAV:   7    -0.373724524708E+02   -0.26366E-08   -0.14565E-07 12924   0.857E-03    0.554E-04
DAV:   8    -0.373724524721E+02   -0.12983E-08   -0.45343E-08  8992   0.341E-03
  12 F= -.37372452E+02 E0= -.37372384E+02  d E =-.298299E-04
 trial-energy change:   -0.000030  1 .order   -0.000029   -0.000048   -0.000011
 step:   1.5574(harm=  1.6073)  dis= 0.00070  next Energy=   -37.372454 (dE=-0.311E-04)
 bond charge predicted
       N       E                     dE             d eps       ncg     rms          rms(c)
DAV:   1    -0.373724544202E+02   -0.19493E-05   -0.10764E-03  9892   0.191E-01    0.135E-02
DAV:   2    -0.373724547494E+02   -0.32924E-06   -0.34938E-05 12072   0.618E-02    0.759E-03
DAV:   3    -0.373724542317E+02    0.51769E-06   -0.36234E-06 11864   0.221E-02    0.367E-03
DAV:   4    -0.373724540672E+02    0.16454E-06   -0.79491E-07 11848   0.137E-02    0.893E-04
DAV:   5    -0.373724540939E+02   -0.26763E-07   -0.26480E-07 11204   0.588E-03    0.418E-04
DAV:   6    -0.373724540960E+02   -0.20423E-08   -0.35922E-08  8068   0.273E-03
  13 F= -.37372454E+02 E0= -.37372386E+02  d E =-.314538E-04
 curvature:  -1.21 expect dE=-0.249E-04 dE for cont linesearch -0.184E-07
 trial: gam= 0.63506 g(F)=  0.143E-04 g(S)=  0.628E-05 ort = 0.941E-06 (trialstep = 0.131E+01)
 search vector abs. value=  0.453E-04
 bond charge predicted
       N       E                     dE             d eps       ncg     rms          rms(c)
DAV:   1    -0.373724796204E+02   -0.25526E-04   -0.16432E-02  9944   0.813E-01    0.592E-02
DAV:   2    -0.373724812765E+02   -0.16561E-05   -0.74066E-04 11220   0.324E-01    0.277E-02
DAV:   3    -0.373724762388E+02    0.50378E-05   -0.57585E-05 13316   0.914E-02    0.138E-02
DAV:   4    -0.373724729932E+02    0.32456E-05   -0.95121E-06 13640   0.430E-02    0.437E-03
DAV:   5    -0.373724728714E+02    0.12179E-06   -0.34542E-06 11460   0.167E-02    0.144E-03
DAV:   6    -0.373724728931E+02   -0.21758E-07   -0.37840E-07 11708   0.784E-03    0.932E-04
DAV:   7    -0.373724729070E+02   -0.13893E-07   -0.45436E-08 10500   0.487E-03    0.590E-04
DAV:   8    -0.373724729365E+02   -0.29435E-07   -0.16035E-08  7168   0.151E-03    0.171E-04
DAV:   9    -0.373724729413E+02   -0.48476E-08   -0.96451E-09  6056   0.119E-03
  14 F= -.37372473E+02 E0= -.37372404E+02  d E =-.188453E-04
 trial-energy change:   -0.000019  1 .order   -0.000019   -0.000028   -0.000009
 step:   1.9181(harm=  1.9833)  dis= 0.00084  next Energy=   -37.372475 (dE=-0.210E-04)
 bond charge predicted
       N       E                     dE             d eps       ncg     rms          rms(c)
DAV:   1    -0.373724769054E+02   -0.39690E-05   -0.35047E-03  9948   0.375E-01    0.273E-02
DAV:   2    -0.373724773406E+02   -0.43514E-06   -0.15767E-04 11228   0.149E-01    0.128E-02
DAV:   3    -0.373724761376E+02    0.12030E-05   -0.12269E-05 13324   0.422E-02    0.637E-03
DAV:   4    -0.373724753870E+02    0.75060E-06   -0.20325E-06 13712   0.199E-02    0.202E-03
DAV:   5    -0.373724753342E+02    0.52850E-07   -0.73259E-07 11468   0.768E-03    0.663E-04
DAV:   6    -0.373724753397E+02   -0.54833E-08   -0.80211E-08 10820   0.365E-03
  15 F= -.37372475E+02 E0= -.37372407E+02  d E =-.212437E-04
 curvature:  -2.10 expect dE=-0.349E-04 dE for cont linesearch -0.959E-08
 trial: gam= 0.80206 g(F)=  0.145E-04 g(S)=  0.214E-05 ort = 0.455E-06 (trialstep = 0.140E+01)
 search vector abs. value=  0.465E-04
 bond charge predicted
       N       E                     dE             d eps       ncg     rms          rms(c)
DAV:   1    -0.373724482055E+02    0.27129E-04   -0.19008E-02  9924   0.782E-01    0.312E-02
DAV:   2    -0.373724863812E+02   -0.38176E-04   -0.48748E-04 11640   0.159E-01    0.187E-02
DAV:   3    -0.373724842574E+02    0.21238E-05   -0.23397E-05 12496   0.453E-02    0.101E-02
DAV:   4    -0.373724830577E+02    0.11996E-05   -0.41050E-06 12564   0.324E-02    0.289E-03
DAV:   5    -0.373724830616E+02   -0.38490E-08   -0.12375E-06 11148   0.145E-02    0.113E-03
DAV:   6    -0.373724830631E+02   -0.14811E-08   -0.25111E-07 12872   0.494E-03    0.677E-04
DAV:   7    -0.373724830625E+02    0.57207E-09   -0.22202E-08  7212   0.361E-03
  16 F= -.37372483E+02 E0= -.37372414E+02  d E =-.772285E-05
 trial-energy change:   -0.000008  1 .order   -0.000009   -0.000024    0.000006
 step:   1.0495(harm=  1.0965)  dis= 0.00053  next Energy=   -37.372484 (dE=-0.854E-05)
 bond charge predicted
       N       E                     dE             d eps       ncg     rms          rms(c)
DAV:   1    -0.373724814802E+02    0.15829E-05   -0.11679E-03  9924   0.194E-01    0.778E-03
DAV:   2    -0.373724837914E+02   -0.23112E-05   -0.29907E-05 11632   0.397E-02    0.461E-03
DAV:   3    -0.373724836475E+02    0.14389E-06   -0.14554E-06 12456   0.119E-02    0.253E-03
DAV:   4    -0.373724835953E+02    0.52213E-07   -0.23838E-07 12672   0.887E-03    0.712E-04
DAV:   5    -0.373724836058E+02   -0.10481E-07   -0.81327E-08 10668   0.460E-03    0.300E-04
DAV:   6    -0.373724836084E+02   -0.25943E-08   -0.14866E-08  6132   0.185E-03
  17 F= -.37372484E+02 E0= -.37372415E+02  d E =-.826871E-05
 curvature:  -1.46 expect dE=-0.936E-05 dE for cont linesearch -0.543E-07
 trial: gam= 0.33919 g(F)=  0.452E-05 g(S)=  0.189E-05 ort = 0.131E-05 (trialstep = 0.133E+01)
 search vector abs. value=  0.126E-04
 bond charge predicted
       N       E                     dE             d eps       ncg     rms          rms(c)
DAV:   1    -0.373724950845E+02   -0.11479E-04   -0.41377E-03 10160   0.389E-01    0.313E-02
DAV:   2    -0.373724946876E+02    0.39686E-06   -0.16260E-04 11864   0.143E-01    0.166E-02
DAV:   3    -0.373724908061E+02    0.38815E-05   -0.15293E-05 12756   0.468E-02    0.802E-03
DAV:   4    -0.373724896766E+02    0.11295E-05   -0.37288E-06 12468   0.237E-02    0.141E-03
DAV:   5    -0.373724897798E+02   -0.10318E-06   -0.12196E-06 10736   0.118E-02    0.905E-04
DAV:   6    -0.373724897982E+02   -0.18423E-07   -0.14098E-07 12044   0.694E-03    0.610E-04
DAV:   7    -0.373724898126E+02   -0.14414E-07   -0.22172E-08  6660   0.375E-03    0.218E-04
DAV:   8    -0.373724898229E+02   -0.10299E-07   -0.13459E-08  6028   0.999E-04    0.104E-04
DAV:   9    -0.373724898227E+02    0.16962E-09   -0.39442E-09  5812   0.669E-04
  18 F= -.37372490E+02 E0= -.37372421E+02  d E =-.621436E-05
 trial-energy change:   -0.000006  1 .order   -0.000006   -0.000009   -0.000003
 step:   2.1065(harm=  2.1065)  dis= 0.00062  next Energy=   -37.372491 (dE=-0.721E-05)
 bond charge predicted
       N       E                     dE             d eps       ncg     rms          rms(c)
DAV:   1    -0.373724926945E+02   -0.28716E-05   -0.14306E-03 10160   0.229E-01    0.184E-02
DAV:   2    -0.373724925983E+02    0.96234E-07   -0.55974E-05 11856   0.840E-02    0.973E-03
DAV:   3    -0.373724911998E+02    0.13985E-05   -0.52751E-06 12736   0.275E-02    0.471E-03
DAV:   4    -0.373724908000E+02    0.39982E-06   -0.12947E-06 12420   0.141E-02    0.828E-04
DAV:   5    -0.373724908381E+02   -0.38147E-07   -0.42418E-07 10732   0.700E-03    0.528E-04
DAV:   6    -0.373724908482E+02   -0.10070E-07   -0.47283E-08  9908   0.405E-03    0.354E-04
DAV:   7    -0.373724908573E+02   -0.90972E-08   -0.86022E-09  6096   0.231E-03
  19 F= -.37372491E+02 E0= -.37372422E+02  d E =-.724891E-05
 curvature:  -1.94 expect dE=-0.856E-05 dE for cont linesearch -0.920E-09
 trial: gam= 0.77632 g(F)=  0.312E-05 g(S)=  0.129E-05 ort =-0.773E-07 (trialstep = 0.148E+01)
 search vector abs. value=  0.119E-04
 bond charge predicted
       N       E                     dE             d eps       ncg     rms          rms(c)
DAV:   1    -0.373724881602E+02    0.26880E-05   -0.55678E-03  9920   0.416E-01    0.199E-02
DAV:   2    -0.373724970238E+02   -0.88636E-05   -0.15112E-04 12024   0.997E-02    0.112E-02
DAV:   3    -0.373724957550E+02    0.12688E-05   -0.93051E-06 11876   0.349E-02    0.593E-03
DAV:   4    -0.373724951785E+02    0.57645E-06   -0.24016E-06 13460   0.248E-02    0.162E-03
DAV:   5    -0.373724952192E+02   -0.40608E-07   -0.76658E-07 10784   0.106E-02    0.743E-04
DAV:   6    -0.373724952178E+02    0.13147E-08   -0.12776E-07 11888   0.364E-03    0.478E-04
DAV:   7    -0.373724952121E+02    0.57535E-08   -0.14461E-08  6372   0.307E-03
  20 F= -.37372495E+02 E0= -.37372426E+02  d E =-.435480E-05
 trial-energy change:   -0.000004  1 .order   -0.000004   -0.000006   -0.000002
 step:   1.9334(harm=  2.0892)  dis= 0.00062  next Energy=   -37.372496 (dE=-0.464E-05)
 bond charge predicted
       N       E                     dE             d eps       ncg     rms          rms(c)
DAV:   1    -0.373724949782E+02    0.23965E-06   -0.51605E-04  9928   0.127E-01    0.606E-03
DAV:   2    -0.373724957986E+02   -0.82038E-06   -0.14053E-05 11992   0.304E-02    0.343E-03
DAV:   3    -0.373724957040E+02    0.94595E-07   -0.88265E-07 11912   0.107E-02    0.182E-03
DAV:   4    -0.373724956468E+02    0.57141E-07   -0.22915E-07 13456   0.768E-03    0.503E-04
DAV:   5    -0.373724956520E+02   -0.51296E-08   -0.73695E-08 10700   0.322E-03
  21 F= -.37372496E+02 E0= -.37372426E+02  d E =-.479468E-05
 curvature:  -2.67 expect dE=-0.572E-05 dE for cont linesearch -0.470E-07
 trial: gam= 0.33288 g(F)=  0.177E-05 g(S)=  0.372E-06 ort = 0.457E-06 (trialstep = 0.157E+01)
 search vector abs. value=  0.376E-05
 bond charge predicted
       N       E                     dE             d eps       ncg     rms          rms(c)
DAV:   1    -0.373724969583E+02   -0.13115E-05   -0.19628E-03  9860   0.259E-01    0.153E-02
DAV:   2    -0.373724987735E+02   -0.18152E-05   -0.62943E-05 11912   0.875E-02    0.819E-03
DAV:   3    -0.373724981908E+02    0.58276E-06   -0.50189E-06 12232   0.253E-02    0.415E-03
DAV:   4    -0.373724978219E+02    0.36881E-06   -0.94401E-07 13316   0.157E-02    0.954E-04
DAV:   5    -0.373724978239E+02   -0.19722E-08   -0.34063E-07 10792   0.667E-03    0.457E-04
DAV:   6    -0.373724978282E+02   -0.42960E-08   -0.42788E-08  9564   0.339E-03
  22 F= -.37372498E+02 E0= -.37372428E+02  d E =-.217625E-05
 trial-energy change:   -0.000002  1 .order   -0.000002   -0.000004   -0.000001
 step:   1.8225(harm=  1.8723)  dis= 0.00029  next Energy=   -37.372498 (dE=-0.222E-05)
 bond charge predicted
       N       E                     dE             d eps       ncg     rms          rms(c)
DAV:   1    -0.373724979120E+02   -0.88050E-07   -0.49809E-05  9896   0.414E-02    0.248E-03
DAV:   2    -0.373724979717E+02   -0.59733E-07   -0.16294E-06 11952   0.144E-02    0.132E-03
DAV:   3    -0.373724979382E+02    0.33470E-07   -0.13207E-07 11732   0.435E-03    0.676E-04
DAV:   4    -0.373724979199E+02    0.18333E-07   -0.22422E-08  7644   0.301E-03    0.163E-04
DAV:   5    -0.373724979181E+02    0.17872E-08   -0.11903E-08  6800   0.153E-03
  23 F= -.37372498E+02 E0= -.37372428E+02  d E =-.226614E-05
 curvature:  -1.49 expect dE=-0.284E-05 dE for cont linesearch -0.104E-07
 trial: gam= 0.92040 g(F)=  0.121E-05 g(S)=  0.693E-06 ort = 0.161E-06 (trialstep = 0.113E+01)
 search vector abs. value=  0.538E-05
 bond charge predicted
       N       E                     dE             d eps       ncg     rms          rms(c)
DAV:   1    -0.373724992735E+02   -0.13536E-05   -0.14548E-03  9980   0.228E-01    0.152E-02
DAV:   2    -0.373724997425E+02   -0.46900E-06   -0.50579E-05 11680   0.840E-02    0.776E-03
DAV:   3    -0.373724995118E+02    0.23068E-06   -0.39647E-06 13404   0.238E-02    0.390E-03
DAV:   4    -0.373724993537E+02    0.15809E-06   -0.67503E-07 13524   0.107E-02    0.968E-04
DAV:   5    -0.373724993811E+02   -0.27369E-07   -0.22968E-07 10992   0.467E-03    0.380E-04
DAV:   6    -0.373724993777E+02    0.33501E-08   -0.29283E-08  8740   0.260E-03
  24 F= -.37372499E+02 E0= -.37372430E+02  d E =-.145960E-05
 trial-energy change:   -0.000001  1 .order   -0.000001   -0.000002   -0.000000
 step:   1.3582(harm=  1.4163)  dis= 0.00026  next Energy=   -37.372499 (dE=-0.151E-05)
 bond charge predicted
       N       E                     dE             d eps       ncg     rms          rms(c)
DAV:   1    -0.373724994133E+02   -0.32243E-07   -0.57021E-05 10056   0.451E-02    0.304E-03
DAV:   2    -0.373724994143E+02   -0.97543E-09   -0.19578E-06 11720   0.167E-02    0.154E-03
DAV:   3    -0.373724994261E+02   -0.11848E-07   -0.15641E-07 13356   0.489E-03    0.771E-04
DAV:   4    -0.373724994308E+02   -0.46766E-08   -0.23718E-08  8448   0.226E-03
  25 F= -.37372499E+02 E0= -.37372430E+02  d E =-.151269E-05
 curvature:  -1.78 expect dE=-0.168E-05 dE for cont linesearch -0.841E-09
 trial: gam= 0.59719 g(F)=  0.457E-06 g(S)=  0.483E-06 ort = 0.504E-07 (trialstep = 0.118E+01)
 search vector abs. value=  0.292E-05
 bond charge predicted
       N       E                     dE             d eps       ncg     rms          rms(c)
DAV:   1    -0.373724995849E+02   -0.15875E-06   -0.86785E-04  9992   0.182E-01    0.124E-02
DAV:   2    -0.373725003570E+02   -0.77210E-06   -0.37447E-05 11728   0.722E-02    0.536E-03
DAV:   3    -0.373725000628E+02    0.29421E-06   -0.30846E-06 11812   0.200E-02    0.288E-03
DAV:   4    -0.373724998569E+02    0.20590E-06   -0.50613E-07 13488   0.102E-02    0.740E-04
DAV:   5    -0.373724998472E+02    0.96779E-08   -0.16058E-07 10868   0.385E-03    0.279E-04
DAV:   6    -0.373724998512E+02   -0.40322E-08   -0.16132E-08  7492   0.158E-03
  26 F= -.37372500E+02 E0= -.37372430E+02  d E =-.420419E-06
 trial-energy change:   -0.000000  1 .order   -0.000000   -0.000001    0.000000
 step:   0.9273(harm=  0.9273)  dis= 0.00013  next Energy=   -37.372500 (dE=-0.450E-06)
 bond charge predicted
       N       E                     dE             d eps       ncg     rms          rms(c)
DAV:   1    -0.373724998319E+02    0.15265E-07   -0.39312E-05 10008   0.388E-02    0.264E-03
DAV:   2    -0.373724998498E+02   -0.17831E-07   -0.16929E-06 11688   0.153E-02    0.114E-03
DAV:   3    -0.373724998674E+02   -0.17600E-07   -0.13861E-07 11752   0.422E-03    0.607E-04
DAV:   4    -0.373724998717E+02   -0.43474E-08   -0.19352E-08  7820   0.191E-03
  27 F= -.37372500E+02 E0= -.37372430E+02  d E =-.440900E-06
 curvature:  -1.40 expect dE=-0.433E-06 dE for cont linesearch -0.809E-08
 trial: gam= 0.12767 g(F)=  0.212E-06 g(S)=  0.988E-07 ort = 0.130E-06 (trialstep = 0.113E+01)
 search vector abs. value=  0.391E-06
 bond charge predicted
       N       E                     dE             d eps       ncg     rms          rms(c)
DAV:   1    -0.373725002733E+02   -0.40595E-06   -0.92736E-05  9892   0.626E-02    0.553E-03
DAV:   2    -0.373725002132E+02    0.60098E-07   -0.53038E-06 11428   0.275E-02    0.299E-03
DAV:   3    -0.373725000739E+02    0.13926E-06   -0.46717E-07 13268   0.851E-03    0.146E-03
DAV:   4    -0.373725000144E+02    0.59512E-07   -0.10894E-07 12576   0.419E-03    0.355E-04
DAV:   5    -0.373725000112E+02    0.32701E-08   -0.37563E-08  9416   0.160E-03
  28 F= -.37372500E+02 E0= -.37372430E+02  d E =-.139463E-06
 trial-energy change:   -0.000000  1 .order   -0.000000   -0.000000   -0.000000
 step:   1.2050(harm=  1.2050)  dis= 0.00004  next Energy=   -37.372500 (dE=-0.197E-06)
 bond charge predicted
       N       E                     dE             d eps       ncg     rms          rms(c)
DAV:   1    -0.373725000186E+02   -0.41887E-08   -0.43728E-07 10272   0.432E-03    0.409E-04
DAV:   2    -0.373725000202E+02   -0.16139E-08   -0.21844E-08  6520   0.200E-03
  29 F= -.37372500E+02 E0= -.37372430E+02  d E =-.148536E-06
 curvature:  -0.72 expect dE=-0.352E-06 dE for cont linesearch -0.489E-09
 trial: gam= 1.60281 g(F)=  0.142E-06 g(S)=  0.346E-06 ort =-0.163E-07 (trialstep = 0.311E+00)
 search vector abs. value=  0.144E-05
 bond charge predicted
       N       E                     dE             d eps       ncg     rms          rms(c)
DAV:   1    -0.373725002267E+02   -0.20807E-06   -0.24316E-05 10092   0.364E-02    0.378E-03
DAV:   2    -0.373725001101E+02    0.11663E-06   -0.20170E-06 10792   0.186E-02    0.179E-03
DAV:   3    -0.373725001136E+02   -0.35757E-08   -0.17875E-07 13788   0.547E-03    0.895E-04
DAV:   4    -0.373725001174E+02   -0.37680E-08   -0.33118E-08  9028   0.289E-03
  30 F= -.37372500E+02 E0= -.37372430E+02  d E =-.971709E-07
 trial-energy change:   -0.000000  1 .order   -0.000000   -0.000000   -0.000000
 step:   0.4475(harm=  0.4475)  dis= 0.00004  next Energy=   -37.372500 (dE=-0.103E-06)
 bond charge predicted
       N       E                     dE             d eps       ncg     rms          rms(c)
DAV:   1    -0.373725001629E+02   -0.49290E-07   -0.47287E-06 10084   0.164E-02    0.169E-03
DAV:   2    -0.373725001342E+02    0.28764E-07   -0.39044E-07 10996   0.823E-03    0.790E-04
DAV:   3    -0.373725001435E+02   -0.93742E-08   -0.34668E-08 10028   0.250E-03
  31 F= -.37372500E+02 E0= -.37372430E+02  d E =-.123303E-06
 curvature:  -0.70 expect dE=-0.137E-06 dE for cont linesearch -0.870E-08
 trial: gam= 0.00690 g(F)=  0.173E-06 g(S)=  0.223E-07 ort = 0.134E-06 (trialstep = 0.338E+00)
 search vector abs. value=  0.198E-06
 bond charge predicted
       N       E                     dE             d eps       ncg     rms          rms(c)
DAV:   1    -0.373725001936E+02   -0.59442E-07   -0.45401E-06  9872   0.125E-02    0.898E-04
DAV:   2    -0.373725002028E+02   -0.91777E-08   -0.21744E-07 12144   0.452E-03    0.568E-04
DAV:   3    -0.373725002104E+02   -0.75797E-08   -0.12897E-08  6096   0.156E-03
  32 F= -.37372500E+02 E0= -.37372430E+02  d E =-.668251E-07
 trial-energy change:   -0.000000  1 .order   -0.000000   -0.000000   -0.000000
 step:   1.0326(harm=  1.0326)  dis= 0.00003  next Energy=   -37.372500 (dE=-0.102E-06)
 bond charge predicted
       N       E                     dE             d eps       ncg     rms          rms(c)
DAV:   1    -0.373725002162E+02   -0.13431E-07   -0.19033E-05  9872   0.259E-02    0.178E-03
DAV:   2    -0.373725002538E+02   -0.37568E-07   -0.94261E-07 12112   0.920E-03    0.116E-03
DAV:   3    -0.373725002653E+02   -0.11528E-07   -0.67132E-08 11520   0.322E-03    0.563E-04
DAV:   4    -0.373725002711E+02   -0.57948E-08   -0.14152E-08  6304   0.172E-03
  33 F= -.37372500E+02 E0= -.37372430E+02  d E =-.127568E-06
 curvature:  -0.52 expect dE=-0.584E-07 dE for cont linesearch -0.990E-09
 trial: gam= 0.67796 g(F)=  0.778E-07 g(S)=  0.346E-07 ort =-0.194E-07 (trialstep = 0.477E+00)
 search vector abs. value=  0.177E-06
 bond charge predicted
       N       E                     dE             d eps       ncg     rms          rms(c)
DAV:   1    -0.373725003368E+02   -0.71489E-07   -0.81715E-06  9876   0.196E-02    0.177E-03
DAV:   2    -0.373725003334E+02    0.34443E-08   -0.57230E-07 11828   0.944E-03    0.759E-04
DAV:   3    -0.373725003119E+02    0.21411E-07   -0.44210E-08 11128   0.269E-03    0.367E-04
DAV:   4    -0.373725003020E+02    0.99444E-08   -0.66954E-09  5688   0.123E-03
  34 F= -.37372500E+02 E0= -.37372430E+02  d E =-.308942E-07
 trial-energy change:   -0.000000  1 .order   -0.000000   -0.000000   -0.000000
 step:   0.5516(harm=  0.5516)  dis= 0.00002  next Energy=   -37.372500 (dE=-0.274E-07)
 bond charge predicted
       N       E                     dE             d eps       ncg     rms          rms(c)
DAV:   1    -0.373725003035E+02    0.84542E-08   -0.20760E-07 10012   0.327E-03    0.290E-04
DAV:   2    -0.373725003045E+02   -0.10241E-08   -0.11452E-08  5264   0.153E-03
  35 F= -.37372500E+02 E0= -.37372430E+02  d E =-.334085E-07
 curvature:  -0.49 expect dE=-0.679E-07 dE for cont linesearch -0.397E-09
 trial: gam= 0.82185 g(F)=  0.852E-07 g(S)=  0.529E-07 ort = 0.120E-07 (trialstep = 0.314E+00)
 search vector abs. value=  0.277E-06
 reached required accuracy - stopping structural energy minimisation
 writing wavefunctions
Mon Jan  3 23:35:47 CST 2022
