Tue Jan  4 00:26:40 CST 2022
 running on   48 total cores
 distrk:  each k-point on   48 cores,    1 groups
 distr:  one band on   24 cores,    2 groups
 using from now: INCAR     
 vasp.5.3.5 31Mar14 (build Jan 11 2016 19:50:55) complex                        
  
 POSCAR found type information on POSCAR  Zn Ga N  O 
 POSCAR found :  4 types and       8 ions
 scaLAPACK will be used

 ----------------------------------------------------------------------------- 
|                                                                             |
|           W    W    AA    RRRRR   N    N  II  N    N   GGGG   !!!           |
|           W    W   A  A   R    R  NN   N  II  NN   N  G    G  !!!           |
|           W    W  A    A  R    R  N N  N  II  N N  N  G       !!!           |
|           W WW W  AAAAAA  RRRRR   N  N N  II  N  N N  G  GGG   !            |
|           WW  WW  A    A  R   R   N   NN  II  N   NN  G    G                |
|           W    W  A    A  R    R  N    N  II  N    N   GGGG   !!!           |
|                                                                             |
|      For optimal performance we recommend to set                            |
|        NCORE= 4 - approx SQRT( number of cores)                             |
|      NCORE specifies how many cores store one orbital (NPAR=cpu/NCORE).     |
|      This setting can  greatly improve the performance of VASP for DFT.     |
|      The default, NPAR=number of cores might be grossly inefficient         |
|      on modern multi-core architectures or massively parallel machines.     |
|      Do your own testing !!!!                                               |
|      Unfortunately you need to use the default for GW and RPA calculations. |
|      (for HF NCORE is supported but not extensively tested yet)             |
|                                                                             |
 ----------------------------------------------------------------------------- 

 LDA part: xc-table for Pade appr. of Perdew
 POSCAR, INCAR and KPOINTS ok, starting setup
 WARNING: small aliasing (wrap around) errors must be expected
 FFT: planning ...
 WAVECAR not read
 entering main loop
       N       E                     dE             d eps       ncg     rms          rms(c)
DAV:   1     0.903284198875E+03    0.90328E+03   -0.42402E+04 10236   0.342E+03
DAV:   2     0.138082014134E+03   -0.76520E+03   -0.73430E+03  9904   0.795E+02
DAV:   3    -0.335703114709E+02   -0.17165E+03   -0.16728E+03 10968   0.270E+02
DAV:   4    -0.484876590434E+02   -0.14917E+02   -0.14740E+02 12516   0.809E+01
DAV:   5    -0.489371778210E+02   -0.44952E+00   -0.44758E+00 12184   0.141E+01    0.173E+01
DAV:   6    -0.407635949427E+02    0.81736E+01   -0.24235E+01 18692   0.842E+01    0.808E+00
DAV:   7    -0.414063233616E+02   -0.64273E+00   -0.82451E+00 10640   0.205E+01    0.549E+00
DAV:   8    -0.413341326727E+02    0.72191E-01   -0.14110E+00 15844   0.123E+01    0.233E+00
DAV:   9    -0.412733346237E+02    0.60798E-01   -0.27245E-01 14180   0.630E+00    0.979E-01
DAV:  10    -0.412676075416E+02    0.57271E-02   -0.94552E-02 13212   0.240E+00    0.457E-01
DAV:  11    -0.412675096876E+02    0.97854E-04   -0.15857E-02 15036   0.137E+00    0.139E-01
DAV:  12    -0.412679438694E+02   -0.43418E-03   -0.26648E-03 11128   0.460E-01    0.859E-02
DAV:  13    -0.412679146346E+02    0.29235E-04   -0.24031E-04 15072   0.252E-01    0.439E-02
DAV:  14    -0.412679343458E+02   -0.19711E-04   -0.11885E-04 10956   0.886E-02    0.214E-02
DAV:  15    -0.412679410697E+02   -0.67239E-05   -0.22083E-05 12944   0.620E-02    0.105E-02
DAV:  16    -0.412679418579E+02   -0.78822E-06   -0.81262E-06 12896   0.467E-02    0.227E-03
DAV:  17    -0.412679421750E+02   -0.31706E-06   -0.20603E-06 13888   0.138E-02    0.164E-03
DAV:  18    -0.412679421809E+02   -0.58899E-08   -0.42360E-07 12400   0.106E-02    0.102E-03
DAV:  19    -0.412679421689E+02    0.11978E-07   -0.13014E-07 13124   0.401E-03    0.519E-04
DAV:  20    -0.412679421476E+02    0.21327E-07   -0.35054E-08  9816   0.243E-03    0.285E-04
DAV:  21    -0.412679421483E+02   -0.71032E-09   -0.60471E-09  6140   0.758E-04
   1 F= -.41267942E+02 E0= -.41263117E+02  d E =-.412679E+02
 curvature:   0.00 expect dE= 0.000E+00 dE for cont linesearch  0.000E+00
 trial: gam= 0.00000 g(F)=  0.388E-01 g(S)=  0.359E-01 ort = 0.000E+00 (trialstep = 0.100E+01)
 search vector abs. value=  0.746E-01
 bond charge predicted
       N       E                     dE             d eps       ncg     rms          rms(c)
DAV:   1    -0.413975449926E+02   -0.12960E+00   -0.11583E+01 10968   0.228E+01    0.256E+00
DAV:   2    -0.413484742976E+02    0.49071E-01   -0.73219E-01 12004   0.117E+01    0.145E+00
DAV:   3    -0.413210104089E+02    0.27464E-01   -0.74235E-02 13076   0.344E+00    0.665E-01
DAV:   4    -0.413129252188E+02    0.80852E-02   -0.22368E-02 12028   0.190E+00    0.111E-01
DAV:   5    -0.413134128720E+02   -0.48765E-03   -0.68529E-03 10840   0.706E-01    0.653E-02
DAV:   6    -0.413133952560E+02    0.17616E-04   -0.46987E-04 12464   0.232E-01    0.418E-02
DAV:   7    -0.413133819616E+02    0.13294E-04   -0.10758E-04 13260   0.192E-01    0.174E-02
DAV:   8    -0.413133832777E+02   -0.13161E-05   -0.39917E-05 12852   0.752E-02    0.686E-03
DAV:   9    -0.413133833777E+02   -0.99934E-07   -0.75694E-06 11260   0.259E-02    0.462E-03
DAV:  10    -0.413133832754E+02    0.10222E-06   -0.13971E-06 12056   0.105E-02    0.144E-03
DAV:  11    -0.413133832077E+02    0.67763E-07   -0.47959E-07 11696   0.865E-03    0.701E-04
DAV:  12    -0.413133832147E+02   -0.69895E-08   -0.44622E-08 10772   0.278E-03
   2 F= -.41313383E+02 E0= -.41308967E+02  d E =-.454411E-01
 trial-energy change:   -0.045441  1 .order   -0.045059   -0.074612   -0.015506
 step:   1.2502(harm=  1.2624)  dis= 0.01966  next Energy=   -41.315329 (dE=-0.474E-01)
 bond charge predicted
       N       E                     dE             d eps       ncg     rms          rms(c)
DAV:   1    -0.413207134438E+02   -0.73302E-02   -0.73073E-01 11384   0.591E+00    0.648E-01
DAV:   2    -0.413175524104E+02    0.31610E-02   -0.47039E-02 12120   0.301E+00    0.368E-01
DAV:   3    -0.413158047009E+02    0.17477E-02   -0.46176E-03 12848   0.851E-01    0.168E-01
DAV:   4    -0.413152873533E+02    0.51735E-03   -0.14344E-03 12048   0.486E-01    0.290E-02
DAV:   5    -0.413153189216E+02   -0.31568E-04   -0.45526E-04 10848   0.179E-01    0.162E-02
DAV:   6    -0.413153176405E+02    0.12810E-05   -0.30825E-05 12416   0.615E-02    0.104E-02
DAV:   7    -0.413153165844E+02    0.10561E-05   -0.71277E-06 13700   0.491E-02    0.451E-03
DAV:   8    -0.413153165491E+02    0.35319E-07   -0.26385E-06 12836   0.197E-02    0.176E-03
DAV:   9    -0.413153165338E+02    0.15324E-07   -0.51285E-07 11728   0.691E-03    0.117E-03
DAV:  10    -0.413153165052E+02    0.28589E-07   -0.10058E-07 11756   0.269E-03    0.434E-04
DAV:  11    -0.413153164795E+02    0.25654E-07   -0.30548E-08  9876   0.206E-03    0.196E-04
DAV:  12    -0.413153164807E+02   -0.11560E-08   -0.39786E-09  6024   0.773E-04
   3 F= -.41315316E+02 E0= -.41311006E+02  d E =-.473743E-01
 curvature:  -0.63 expect dE=-0.131E-01 dE for cont linesearch -0.745E-07
 trial: gam= 0.27779 g(F)=  0.979E-02 g(S)=  0.110E-01 ort = 0.939E-04 (trialstep = 0.105E+01)
 search vector abs. value=  0.266E-01
 bond charge predicted
       N       E                     dE             d eps       ncg     rms          rms(c)
DAV:   1    -0.414092635498E+02   -0.93947E-01   -0.46570E+00 13404   0.219E+01    0.233E+00
DAV:   2    -0.413434910914E+02    0.65772E-01   -0.52287E-01 12780   0.104E+01    0.102E+00
DAV:   3    -0.413303707573E+02    0.13120E-01   -0.38467E-02 15760   0.258E+00    0.505E-01
DAV:   4    -0.413253722233E+02    0.49985E-02   -0.80011E-03 16444   0.123E+00    0.913E-02
DAV:   5    -0.413255349276E+02   -0.16270E-03   -0.38661E-03 10612   0.551E-01    0.613E-02
DAV:   6    -0.413255374311E+02   -0.25035E-05   -0.22215E-04 12700   0.124E-01    0.411E-02
DAV:   7    -0.413255374370E+02   -0.59472E-08   -0.29098E-05 13452   0.859E-02    0.289E-02
DAV:   8    -0.413255388018E+02   -0.13647E-05   -0.14153E-05 15288   0.465E-02    0.922E-03
DAV:   9    -0.413255376049E+02    0.11969E-05   -0.72597E-06 13596   0.300E-02    0.346E-03
DAV:  10    -0.413255377397E+02   -0.13488E-06   -0.25857E-06 10624   0.974E-03    0.200E-03
DAV:  11    -0.413255377678E+02   -0.28074E-07   -0.20112E-07 13108   0.588E-03    0.119E-03
DAV:  12    -0.413255378567E+02   -0.88929E-07   -0.11336E-07 12852   0.365E-03    0.602E-04
DAV:  13    -0.413255378692E+02   -0.12501E-07   -0.15893E-08  6572   0.162E-03    0.266E-04
DAV:  14    -0.413255378733E+02   -0.40704E-08   -0.10766E-08  6228   0.983E-04
   4 F= -.41325538E+02 E0= -.41321256E+02  d E =-.102214E-01
 trial-energy change:   -0.010221  1 .order   -0.010269   -0.021890    0.001353
 step:   0.9882(harm=  0.9889)  dis= 0.01145  next Energy=   -41.325578 (dE=-0.103E-01)
 bond charge predicted
       N       E                     dE             d eps       ncg     rms          rms(c)
DAV:   1    -0.413258582839E+02   -0.32041E-03   -0.15762E-02 12988   0.125E+00    0.137E-01
DAV:   2    -0.413256379952E+02    0.22029E-03   -0.18956E-03 12972   0.630E-01    0.595E-02
DAV:   3    -0.413255943245E+02    0.43671E-04   -0.13299E-04 15776   0.155E-01    0.296E-02
DAV:   4    -0.413255781201E+02    0.16204E-04   -0.27791E-05 16428   0.717E-02    0.522E-03
DAV:   5    -0.413255788191E+02   -0.69898E-06   -0.12846E-05 10612   0.316E-02    0.383E-03
DAV:   6    -0.413255787701E+02    0.48975E-07   -0.69466E-07 12940   0.684E-03    0.273E-03
DAV:   7    -0.413255787104E+02    0.59666E-07   -0.86308E-08 12900   0.561E-03    0.181E-03
DAV:   8    -0.413255786056E+02    0.10482E-06   -0.45575E-08 10332   0.300E-03    0.534E-04
DAV:   9    -0.413255786044E+02    0.11678E-08   -0.28001E-08  9024   0.265E-03
   5 F= -.41325579E+02 E0= -.41321295E+02  d E =-.102621E-01
 curvature:  -0.63 expect dE=-0.318E-02 dE for cont linesearch -0.105E-07
 trial: gam= 0.25158 g(F)=  0.325E-02 g(S)=  0.178E-02 ort =-0.211E-04 (trialstep = 0.104E+01)
 search vector abs. value=  0.671E-02
 bond charge predicted
       N       E                     dE             d eps       ncg     rms          rms(c)
DAV:   1    -0.413353171908E+02   -0.97386E-02   -0.10866E+00 10020   0.615E+00    0.667E-01
DAV:   2    -0.413319606290E+02    0.33566E-02   -0.35748E-02 12268   0.209E+00    0.394E-01
DAV:   3    -0.413291089792E+02    0.28516E-02   -0.45158E-03 13344   0.878E-01    0.116E-01
DAV:   4    -0.413289850627E+02    0.12392E-03   -0.15116E-03 11240   0.412E-01    0.277E-02
DAV:   5    -0.413290059912E+02   -0.20929E-04   -0.29587E-04 11996   0.147E-01    0.190E-02
DAV:   6    -0.413290043325E+02    0.16587E-05   -0.19711E-05 12400   0.554E-02    0.116E-02
DAV:   7    -0.413290042344E+02    0.98058E-07   -0.73457E-06 12776   0.400E-02    0.353E-03
DAV:   8    -0.413290043929E+02   -0.15842E-06   -0.25510E-06 12564   0.209E-02    0.223E-03
DAV:   9    -0.413290044088E+02   -0.15938E-07   -0.36561E-07 11640   0.704E-03    0.149E-03
DAV:  10    -0.413290044593E+02   -0.50507E-07   -0.76897E-08 11168   0.244E-03    0.414E-04
DAV:  11    -0.413290044738E+02   -0.14453E-07   -0.15119E-08  6676   0.182E-03    0.998E-05
DAV:  12    -0.413290044747E+02   -0.94815E-09   -0.38989E-09  6048   0.714E-04
   6 F= -.41329004E+02 E0= -.41324625E+02  d E =-.342587E-02
 trial-energy change:   -0.003426  1 .order   -0.003408   -0.005215   -0.001600
 step:   1.4779(harm=  1.4970)  dis= 0.00861  next Energy=   -41.329345 (dE=-0.377E-02)
 bond charge predicted
       N       E                     dE             d eps       ncg     rms          rms(c)
DAV:   1    -0.413304897950E+02   -0.14853E-02   -0.19496E-01  9888   0.260E+00    0.282E-01
DAV:   2    -0.413298967506E+02    0.59304E-03   -0.64139E-03 12252   0.875E-01    0.167E-01
DAV:   3    -0.413293837130E+02    0.51304E-03   -0.81153E-04 13744   0.362E-01    0.473E-02
DAV:   4    -0.413293639097E+02    0.19803E-04   -0.25709E-04 11328   0.166E-01    0.116E-02
DAV:   5    -0.413293675513E+02   -0.36416E-05   -0.50193E-05 11948   0.610E-02    0.807E-03
DAV:   6    -0.413293673165E+02    0.23481E-06   -0.35893E-06 12324   0.243E-02    0.478E-03
DAV:   7    -0.413293673736E+02   -0.57145E-07   -0.12700E-06 12744   0.162E-02    0.148E-03
DAV:   8    -0.413293674041E+02   -0.30426E-07   -0.44652E-07 12584   0.852E-03    0.937E-04
DAV:   9    -0.413293674103E+02   -0.62455E-08   -0.62335E-08 10772   0.310E-03
   7 F= -.41329367E+02 E0= -.41324948E+02  d E =-.378881E-02
 curvature:  -1.00 expect dE=-0.263E-02 dE for cont linesearch -0.528E-06
 trial: gam= 0.50698 g(F)=  0.165E-02 g(S)=  0.982E-03 ort = 0.596E-04 (trialstep = 0.113E+01)
 search vector abs. value=  0.442E-02
 bond charge predicted
       N       E                     dE             d eps       ncg     rms          rms(c)
DAV:   1    -0.413368717515E+02   -0.75043E-02   -0.10210E+00 11108   0.829E+00    0.802E-01
DAV:   2    -0.413321787171E+02    0.46930E-02   -0.90301E-02 12148   0.420E+00    0.331E-01
DAV:   3    -0.413312035092E+02    0.97521E-03   -0.68836E-03 13904   0.100E+00    0.167E-01
DAV:   4    -0.413306525945E+02    0.55091E-03   -0.10742E-03 14464   0.482E-01    0.430E-02
DAV:   5    -0.413306515075E+02    0.10870E-05   -0.40408E-04 11080   0.163E-01    0.200E-02
DAV:   6    -0.413306523436E+02   -0.83608E-06   -0.36349E-05 12540   0.414E-02    0.131E-02
DAV:   7    -0.413306516372E+02    0.70636E-06   -0.28264E-06 13812   0.302E-02    0.882E-03
DAV:   8    -0.413306511027E+02    0.53457E-06   -0.19159E-06 15408   0.179E-02    0.268E-03
DAV:   9    -0.413306509932E+02    0.10950E-06   -0.89634E-07 14124   0.153E-02    0.818E-04
DAV:  10    -0.413306510182E+02   -0.25063E-07   -0.26287E-07 10480   0.308E-03    0.868E-04
DAV:  11    -0.413306509949E+02    0.23336E-07   -0.19263E-08  7892   0.134E-03    0.357E-04
DAV:  12    -0.413306509756E+02    0.19235E-07   -0.18310E-08  7656   0.104E-03    0.121E-04
DAV:  13    -0.413306509700E+02    0.56289E-08   -0.29980E-09  5956   0.424E-04
   8 F= -.41330651E+02 E0= -.41326209E+02  d E =-.128356E-02
 trial-energy change:   -0.001284  1 .order   -0.001276   -0.002999    0.000447
 step:   0.9814(harm=  0.9798)  dis= 0.00530  next Energy=   -41.330680 (dE=-0.131E-02)
 bond charge predicted
       N       E                     dE             d eps       ncg     rms          rms(c)
DAV:   1    -0.413307828194E+02   -0.13184E-03   -0.16836E-02 11336   0.108E+00    0.103E-01
DAV:   2    -0.413307051924E+02    0.77627E-04   -0.14583E-03 12120   0.534E-01    0.426E-02
DAV:   3    -0.413306880665E+02    0.17126E-04   -0.11097E-04 13972   0.126E-01    0.213E-02
DAV:   4    -0.413306782915E+02    0.97750E-05   -0.17061E-05 14560   0.612E-02    0.559E-03
DAV:   5    -0.413306780948E+02    0.19669E-06   -0.65477E-06 11108   0.209E-02    0.257E-03
DAV:   6    -0.413306781793E+02   -0.84458E-07   -0.63273E-07 12420   0.556E-03    0.173E-03
DAV:   7    -0.413306782019E+02   -0.22580E-07   -0.39732E-08 11428   0.395E-03    0.119E-03
DAV:   8    -0.413306782861E+02   -0.84219E-07   -0.33266E-08  9884   0.280E-03    0.359E-04
DAV:   9    -0.413306782834E+02    0.27094E-08   -0.16018E-08  6452   0.231E-03
   9 F= -.41330678E+02 E0= -.41326239E+02  d E =-.131087E-02
 curvature:  -0.81 expect dE=-0.726E-03 dE for cont linesearch -0.219E-09
 trial: gam= 0.35212 g(F)=  0.668E-03 g(S)=  0.227E-03 ort =-0.109E-05 (trialstep = 0.110E+01)
 search vector abs. value=  0.144E-02
 bond charge predicted
       N       E                     dE             d eps       ncg     rms          rms(c)
DAV:   1    -0.413309972937E+02   -0.31901E-03   -0.32650E-01  9984   0.341E+00    0.180E-01
DAV:   2    -0.413315029735E+02   -0.50568E-03   -0.10272E-02 11428   0.972E-01    0.106E-01
DAV:   3    -0.413314340534E+02    0.68920E-04   -0.72703E-04 13040   0.309E-01    0.554E-02
DAV:   4    -0.413313913249E+02    0.42728E-04   -0.15226E-04 13332   0.168E-01    0.123E-02
DAV:   5    -0.413313940627E+02   -0.27378E-05   -0.48797E-05 10796   0.685E-02    0.680E-03
DAV:   6    -0.413313942340E+02   -0.17132E-06   -0.43167E-06 12696   0.260E-02    0.420E-03
DAV:   7    -0.413313942655E+02   -0.31496E-07   -0.67697E-07 12556   0.163E-02    0.244E-03
DAV:   8    -0.413313943753E+02   -0.10979E-06   -0.36725E-07 12572   0.519E-03    0.599E-04
DAV:   9    -0.413313943649E+02    0.10431E-07   -0.77279E-08 11984   0.264E-03    0.419E-04
DAV:  10    -0.413313943733E+02   -0.83969E-08   -0.17557E-08  6964   0.115E-03
  10 F= -.41331394E+02 E0= -.41326907E+02  d E =-.716090E-03
 trial-energy change:   -0.000716  1 .order   -0.000715   -0.000980   -0.000449
 step:   2.0242(harm=  2.0242)  dis= 0.00745  next Energy=   -41.331583 (dE=-0.905E-03)
 bond charge predicted
       N       E                     dE             d eps       ncg     rms          rms(c)
DAV:   1    -0.413313005566E+02    0.93808E-04   -0.23331E-01  9968   0.288E+00    0.152E-01
DAV:   2    -0.413316609224E+02   -0.36037E-03   -0.73229E-03 11432   0.818E-01    0.893E-02
DAV:   3    -0.413316112561E+02    0.49666E-04   -0.51715E-04 13092   0.261E-01    0.468E-02
DAV:   4    -0.413315806788E+02    0.30577E-04   -0.10833E-04 13320   0.141E-01    0.104E-02
DAV:   5    -0.413315826076E+02   -0.19288E-05   -0.34768E-05 10804   0.579E-02    0.575E-03
DAV:   6    -0.413315827360E+02   -0.12838E-06   -0.30764E-06 12712   0.219E-02    0.356E-03
DAV:   7    -0.413315827706E+02   -0.34642E-07   -0.48360E-07 12512   0.137E-02    0.206E-03
DAV:   8    -0.413315828609E+02   -0.90239E-07   -0.26175E-07 12652   0.439E-03    0.506E-04
DAV:   9    -0.413315828527E+02    0.82282E-08   -0.54843E-08 11428   0.223E-03
  11 F= -.41331583E+02 E0= -.41327056E+02  d E =-.904569E-03
 curvature:  -1.63 expect dE=-0.121E-02 dE for cont linesearch -0.557E-13
 trial: gam= 0.81816 g(F)=  0.565E-03 g(S)=  0.176E-03 ort =-0.701E-08 (trialstep = 0.108E+01)
 search vector abs. value=  0.171E-02
 bond charge predicted
       N       E                     dE             d eps       ncg     rms          rms(c)
DAV:   1    -0.413313651303E+02    0.21773E-03   -0.43494E-01  9856   0.368E+00    0.123E-01
DAV:   2    -0.413322255373E+02   -0.86041E-03   -0.10784E-02 12336   0.732E-01    0.715E-02
DAV:   3    -0.413321658046E+02    0.59733E-04   -0.34702E-04 12772   0.197E-01    0.409E-02
DAV:   4    -0.413321308062E+02    0.34998E-04   -0.11738E-04 12700   0.153E-01    0.117E-02
DAV:   5    -0.413321345824E+02   -0.37762E-05   -0.54899E-05 10864   0.832E-02    0.690E-03
DAV:   6    -0.413321343130E+02    0.26945E-06   -0.47431E-06 12920   0.227E-02    0.416E-03
DAV:   7    -0.413321342318E+02    0.81186E-07   -0.83469E-07 12804   0.126E-02    0.195E-03
DAV:   8    -0.413321342690E+02   -0.37198E-07   -0.36317E-07 13236   0.526E-03    0.566E-04
DAV:   9    -0.413321342719E+02   -0.29222E-08   -0.68166E-08 11588   0.225E-03
  12 F= -.41332134E+02 E0= -.41327651E+02  d E =-.551419E-03
 trial-energy change:   -0.000551  1 .order   -0.000550   -0.000803   -0.000298
 step:   1.7236(harm=  1.7236)  dis= 0.00555  next Energy=   -41.332221 (dE=-0.638E-03)
 bond charge predicted
       N       E                     dE             d eps       ncg     rms          rms(c)
DAV:   1    -0.413319511856E+02    0.18308E-03   -0.15168E-01  9856   0.217E+00    0.728E-02
DAV:   2    -0.413322509337E+02   -0.29975E-03   -0.37553E-03 12328   0.431E-01    0.421E-02
DAV:   3    -0.413322299788E+02    0.20955E-04   -0.12022E-04 12836   0.114E-01    0.242E-02
DAV:   4    -0.413322177620E+02    0.12217E-04   -0.40616E-05 12756   0.916E-02    0.694E-03
DAV:   5    -0.413322190703E+02   -0.13083E-05   -0.19305E-05 10904   0.500E-02    0.408E-03
DAV:   6    -0.413322189663E+02    0.10405E-06   -0.16623E-06 12984   0.131E-02    0.243E-03
DAV:   7    -0.413322189557E+02    0.10570E-07   -0.29632E-07 12600   0.737E-03    0.116E-03
DAV:   8    -0.413322189771E+02   -0.21424E-07   -0.12587E-07 13048   0.296E-03    0.346E-04
DAV:   9    -0.413322189774E+02   -0.25921E-09   -0.22289E-08  7868   0.138E-03
  13 F= -.41332219E+02 E0= -.41327762E+02  d E =-.636125E-03
 curvature:  -1.98 expect dE=-0.805E-03 dE for cont linesearch -0.168E-09
 trial: gam= 0.54850 g(F)=  0.336E-03 g(S)=  0.696E-04 ort =-0.380E-06 (trialstep = 0.121E+01)
 search vector abs. value=  0.918E-03
 bond charge predicted
       N       E                     dE             d eps       ncg     rms          rms(c)
DAV:   1    -0.413322107841E+02    0.81930E-05   -0.28659E-01  9960   0.297E+00    0.111E-01
DAV:   2    -0.413326000039E+02   -0.38922E-03   -0.57813E-03 11800   0.577E-01    0.671E-02
DAV:   3    -0.413325319727E+02    0.68031E-04   -0.23242E-04 13608   0.146E-01    0.309E-02
DAV:   4    -0.413325177909E+02    0.14182E-04   -0.76215E-05 11560   0.925E-02    0.830E-03
DAV:   5    -0.413325192258E+02   -0.14349E-05   -0.20296E-05 11392   0.553E-02    0.465E-03
DAV:   6    -0.413325191334E+02    0.92385E-07   -0.22366E-06 12656   0.176E-02    0.280E-03
DAV:   7    -0.413325191353E+02   -0.18736E-08   -0.52753E-07 11932   0.921E-03    0.119E-03
DAV:   8    -0.413325191576E+02   -0.22279E-07   -0.15087E-07 13000   0.414E-03    0.527E-04
DAV:   9    -0.413325191620E+02   -0.44274E-08   -0.22581E-08  7352   0.163E-03
  14 F= -.41332519E+02 E0= -.41328050E+02  d E =-.300185E-03
 trial-energy change:   -0.000300  1 .order   -0.000301   -0.000491   -0.000111
 step:   1.5745(harm=  1.5662)  dis= 0.00474  next Energy=   -41.332536 (dE=-0.317E-03)
 bond charge predicted
       N       E                     dE             d eps       ncg     rms          rms(c)
DAV:   1    -0.413325074745E+02    0.11683E-04   -0.25706E-02  9964   0.889E-01    0.331E-02
DAV:   2    -0.413325422659E+02   -0.34791E-04   -0.51599E-04 11824   0.173E-01    0.202E-02
DAV:   3    -0.413325362570E+02    0.60088E-05   -0.20483E-05 13492   0.431E-02    0.921E-03
DAV:   4    -0.413325350783E+02    0.11787E-05   -0.67421E-06 11544   0.265E-02    0.244E-03
DAV:   5    -0.413325352139E+02   -0.13553E-06   -0.18181E-06 11380   0.162E-02    0.139E-03
DAV:   6    -0.413325352086E+02    0.52464E-08   -0.19219E-07 12752   0.540E-03    0.846E-04
DAV:   7    -0.413325352121E+02   -0.34688E-08   -0.46029E-08 10332   0.281E-03
  15 F= -.41332535E+02 E0= -.41328062E+02  d E =-.316235E-03
 curvature:  -1.77 expect dE=-0.307E-03 dE for cont linesearch -0.162E-07
 trial: gam= 0.43146 g(F)=  0.149E-03 g(S)=  0.243E-04 ort =-0.290E-05 (trialstep = 0.128E+01)
 search vector abs. value=  0.342E-03
 bond charge predicted
       N       E                     dE             d eps       ncg     rms          rms(c)
DAV:   1    -0.413325224943E+02    0.12714E-04   -0.12061E-01  9908   0.188E+00    0.887E-02
DAV:   2    -0.413326757634E+02   -0.15327E-03   -0.26625E-03 11752   0.402E-01    0.530E-02
DAV:   3    -0.413326331782E+02    0.42585E-04   -0.13501E-04 12492   0.104E-01    0.239E-02
DAV:   4    -0.413326259171E+02    0.72612E-05   -0.36952E-05 13932   0.827E-02    0.542E-03
DAV:   5    -0.413326266327E+02   -0.71563E-06   -0.11428E-05 10956   0.425E-02    0.392E-03
DAV:   6    -0.413326265757E+02    0.56984E-07   -0.15452E-06 12080   0.118E-02    0.178E-03
DAV:   7    -0.413326265518E+02    0.23908E-07   -0.24747E-07 12664   0.690E-03    0.108E-03
DAV:   8    -0.413326265525E+02   -0.70577E-09   -0.87021E-08 11960   0.265E-03
  16 F= -.41332627E+02 E0= -.41328165E+02  d E =-.913404E-04
 trial-energy change:   -0.000091  1 .order   -0.000092   -0.000221    0.000037
 step:   1.0972(harm=  1.0997)  dis= 0.00256  next Energy=   -41.332629 (dE=-0.940E-04)
 bond charge predicted
       N       E                     dE             d eps       ncg     rms          rms(c)
DAV:   1    -0.413326272639E+02   -0.71206E-06   -0.25601E-03  9900   0.274E-01    0.129E-02
DAV:   2    -0.413326305189E+02   -0.32550E-05   -0.56727E-05 11768   0.586E-02    0.776E-03
DAV:   3    -0.413326295269E+02    0.99194E-06   -0.28498E-06 12500   0.153E-02    0.345E-03
DAV:   4    -0.413326293422E+02    0.18471E-06   -0.78916E-07 13856   0.116E-02    0.798E-04
DAV:   5    -0.413326293548E+02   -0.12609E-07   -0.23886E-07 10916   0.602E-03    0.583E-04
DAV:   6    -0.413326293518E+02    0.29936E-08   -0.27871E-08  8136   0.190E-03
  17 F= -.41332629E+02 E0= -.41328166E+02  d E =-.941397E-04
 curvature:  -1.09 expect dE=-0.349E-04 dE for cont linesearch -0.233E-08
 trial: gam= 0.17393 g(F)=  0.296E-04 g(S)=  0.241E-05 ort = 0.855E-06 (trialstep = 0.125E+01)
 search vector abs. value=  0.426E-04
 bond charge predicted
       N       E                     dE             d eps       ncg     rms          rms(c)
DAV:   1    -0.413326408942E+02   -0.11539E-04   -0.14900E-02 10476   0.681E-01    0.318E-02
DAV:   2    -0.413326593961E+02   -0.18502E-04   -0.35032E-04 11736   0.170E-01    0.170E-02
DAV:   3    -0.413326566325E+02    0.27636E-05   -0.22230E-05 12700   0.508E-02    0.966E-03
DAV:   4    -0.413326548685E+02    0.17640E-05   -0.50080E-06 13764   0.322E-02    0.248E-03
DAV:   5    -0.413326549280E+02   -0.59487E-07   -0.18982E-06 10828   0.123E-02    0.114E-03
DAV:   6    -0.413326549309E+02   -0.29013E-08   -0.15145E-07 13456   0.354E-03    0.720E-04
DAV:   7    -0.413326549365E+02   -0.56534E-08   -0.17987E-08  6660   0.185E-03
  18 F= -.41332655E+02 E0= -.41328194E+02  d E =-.255847E-04
 trial-energy change:   -0.000026  1 .order   -0.000026   -0.000040   -0.000012
 step:   1.8059(harm=  1.7598)  dis= 0.00128  next Energy=   -41.332658 (dE=-0.282E-04)
 bond charge predicted
       N       E                     dE             d eps       ncg     rms          rms(c)
DAV:   1    -0.413326545739E+02    0.35698E-06   -0.29987E-03 10432   0.306E-01    0.143E-02
DAV:   2    -0.413326583606E+02   -0.37868E-05   -0.70907E-05 11736   0.762E-02    0.767E-03
DAV:   3    -0.413326577373E+02    0.62332E-06   -0.45012E-06 12700   0.228E-02    0.435E-03
DAV:   4    -0.413326573443E+02    0.39297E-06   -0.10165E-06 13760   0.143E-02    0.112E-03
DAV:   5    -0.413326573455E+02   -0.11833E-08   -0.38897E-07 10844   0.559E-03    0.517E-04
DAV:   6    -0.413326573476E+02   -0.20996E-08   -0.29910E-08  9780   0.160E-03
  19 F= -.41332657E+02 E0= -.41328197E+02  d E =-.279958E-04
 curvature:  -1.16 expect dE=-0.215E-04 dE for cont linesearch -0.863E-08
 trial: gam= 0.60339 g(F)=  0.166E-04 g(S)=  0.198E-05 ort =-0.563E-06 (trialstep = 0.136E+01)
 search vector abs. value=  0.334E-04
 bond charge predicted
       N       E                     dE             d eps       ncg     rms          rms(c)
DAV:   1    -0.413326500238E+02    0.73217E-05   -0.13494E-02 10528   0.647E-01    0.363E-02
DAV:   2    -0.413326714436E+02   -0.21420E-04   -0.43255E-04 12568   0.184E-01    0.193E-02
DAV:   3    -0.413326677147E+02    0.37289E-05   -0.28229E-05 12124   0.571E-02    0.108E-02
DAV:   4    -0.413326655580E+02    0.21566E-05   -0.63562E-06 13380   0.370E-02    0.253E-03
DAV:   5    -0.413326657181E+02   -0.16007E-06   -0.24793E-06 10808   0.131E-02    0.135E-03
DAV:   6    -0.413326656926E+02    0.25548E-07   -0.18861E-07 13380   0.337E-03    0.816E-04
DAV:   7    -0.413326656732E+02    0.19377E-07   -0.36209E-08 10352   0.208E-03    0.343E-04
DAV:   8    -0.413326656638E+02    0.93828E-08   -0.10654E-08  6220   0.107E-03
  20 F= -.41332666E+02 E0= -.41328215E+02  d E =-.831616E-05
 trial-energy change:   -0.000008  1 .order   -0.000008   -0.000025    0.000008
 step:   1.0244(harm=  1.0312)  dis= 0.00049  next Energy=   -41.332667 (dE=-0.929E-05)
 bond charge predicted
       N       E                     dE             d eps       ncg     rms          rms(c)
DAV:   1    -0.413326657196E+02   -0.46411E-07   -0.81606E-04 10516   0.159E-01    0.896E-03
DAV:   2    -0.413326670576E+02   -0.13380E-05   -0.26235E-05 12576   0.455E-02    0.474E-03
DAV:   3    -0.413326667675E+02    0.29008E-06   -0.17215E-06 12108   0.142E-02    0.265E-03
DAV:   4    -0.413326666238E+02    0.14374E-06   -0.38202E-07 13404   0.905E-03    0.627E-04
DAV:   5    -0.413326666291E+02   -0.53274E-08   -0.14730E-07 10812   0.316E-03    0.326E-04
DAV:   6    -0.413326666321E+02   -0.29891E-08   -0.93697E-09  6164   0.836E-04
  21 F= -.41332667E+02 E0= -.41328214E+02  d E =-.928448E-05
 curvature:  -0.94 expect dE=-0.751E-05 dE for cont linesearch -0.274E-08
 trial: gam= 0.39324 g(F)=  0.606E-05 g(S)=  0.190E-05 ort = 0.312E-06 (trialstep = 0.129E+01)
 search vector abs. value=  0.134E-04
 bond charge predicted
       N       E                     dE             d eps       ncg     rms          rms(c)
DAV:   1    -0.413326698629E+02   -0.32338E-05   -0.42386E-03  9972   0.366E-01    0.220E-02
DAV:   2    -0.413326747180E+02   -0.48551E-05   -0.12884E-04 12004   0.982E-02    0.131E-02
DAV:   3    -0.413326716559E+02    0.30621E-05   -0.88279E-06 11952   0.403E-02    0.570E-03
DAV:   4    -0.413326711426E+02    0.51325E-06   -0.28262E-06 12916   0.209E-02    0.116E-03
DAV:   5    -0.413326712018E+02   -0.59169E-07   -0.71981E-07 10892   0.812E-03    0.812E-04
DAV:   6    -0.413326712040E+02   -0.22364E-08   -0.55354E-08 10812   0.381E-03
  22 F= -.41332671E+02 E0= -.41328220E+02  d E =-.457194E-05
 trial-energy change:   -0.000005  1 .order   -0.000005   -0.000010    0.000001
 step:   1.1621(harm=  1.1680)  dis= 0.00048  next Energy=   -41.332671 (dE=-0.463E-05)
 bond charge predicted
       N       E                     dE             d eps       ncg     rms          rms(c)
DAV:   1    -0.413326712398E+02   -0.38027E-07   -0.42302E-05  9984   0.366E-02    0.219E-03
DAV:   2    -0.413326712860E+02   -0.46119E-07   -0.12423E-06 11988   0.955E-03    0.130E-03
DAV:   3    -0.413326712683E+02    0.17652E-07   -0.83410E-08 11740   0.361E-03    0.544E-04
DAV:   4    -0.413326712659E+02    0.24179E-08   -0.22226E-08  7128   0.184E-03
  23 F= -.41332671E+02 E0= -.41328220E+02  d E =-.463378E-05
 curvature:  -0.96 expect dE=-0.216E-05 dE for cont linesearch -0.185E-08
 trial: gam= 0.27489 g(F)=  0.209E-05 g(S)=  0.150E-06 ort = 0.160E-06 (trialstep = 0.127E+01)
 search vector abs. value=  0.334E-05
 bond charge predicted
       N       E                     dE             d eps       ncg     rms          rms(c)
DAV:   1    -0.413326714259E+02   -0.15760E-06   -0.11444E-03 10128   0.188E-01    0.535E-03
DAV:   2    -0.413326733846E+02   -0.19587E-05   -0.22877E-05 12060   0.377E-02    0.331E-03
DAV:   3    -0.413326733475E+02    0.37118E-07   -0.11997E-06 12984   0.137E-02    0.202E-03
DAV:   4    -0.413326732829E+02    0.64605E-07   -0.21015E-07 13852   0.941E-03    0.721E-04
DAV:   5    -0.413326732810E+02    0.18654E-08   -0.88112E-08 10952   0.364E-03
  24 F= -.41332673E+02 E0= -.41328222E+02  d E =-.201516E-05
 trial-energy change:   -0.000002  1 .order   -0.000002   -0.000003   -0.000001
 step:   2.1709(harm=  2.1709)  dis= 0.00033  next Energy=   -41.332674 (dE=-0.248E-05)
 bond charge predicted
       N       E                     dE             d eps       ncg     rms          rms(c)
DAV:   1    -0.413326727700E+02    0.51293E-06   -0.58583E-04 10128   0.135E-01    0.389E-03
DAV:   2    -0.413326737901E+02   -0.10201E-05   -0.11871E-05 12044   0.273E-02    0.239E-03
DAV:   3    -0.413326737719E+02    0.18243E-07   -0.62610E-07 12952   0.102E-02    0.145E-03
DAV:   4    -0.413326737367E+02    0.35158E-07   -0.10573E-07 12952   0.669E-03    0.529E-04
DAV:   5    -0.413326737351E+02    0.16562E-08   -0.45369E-08 10136   0.260E-03
  25 F= -.41332674E+02 E0= -.41328223E+02  d E =-.246918E-05
 curvature:  -1.59 expect dE=-0.120E-05 dE for cont linesearch -0.174E-08
 trial: gam= 0.33814 g(F)=  0.668E-06 g(S)=  0.883E-07 ort = 0.605E-07 (trialstep = 0.145E+01)
 search vector abs. value=  0.118E-05
 bond charge predicted
       N       E                     dE             d eps       ncg     rms          rms(c)
DAV:   1    -0.413326740095E+02   -0.27277E-06   -0.50772E-04 10148   0.131E-01    0.723E-03
DAV:   2    -0.413326744914E+02   -0.48190E-06   -0.14248E-05 11800   0.366E-02    0.386E-03
DAV:   3    -0.413326744022E+02    0.89194E-07   -0.94938E-07 12832   0.115E-02    0.208E-03
DAV:   4    -0.413326743554E+02    0.46818E-07   -0.21200E-07 14832   0.628E-03    0.401E-04
DAV:   5    -0.413326743668E+02   -0.11452E-07   -0.81750E-08 10640   0.281E-03    0.254E-04
DAV:   6    -0.413326743627E+02    0.41359E-08   -0.45447E-09  5932   0.845E-04
  26 F= -.41332674E+02 E0= -.41328221E+02  d E =-.627635E-06
 trial-energy change:   -0.000001  1 .order   -0.000001   -0.000001   -0.000000
 step:   1.6190(harm=  1.6190)  dis= 0.00017  next Energy=   -41.332674 (dE=-0.629E-06)
 bond charge predicted
       N       E                     dE             d eps       ncg     rms          rms(c)
DAV:   1    -0.413326743555E+02    0.11332E-07   -0.72178E-06 10200   0.156E-02    0.885E-04
DAV:   2    -0.413326743590E+02   -0.35416E-08   -0.20484E-07 11872   0.455E-03    0.459E-04
DAV:   3    -0.413326743603E+02   -0.12401E-08   -0.10804E-08  6272   0.140E-03
  27 F= -.41332674E+02 E0= -.41328221E+02  d E =-.625221E-06
 curvature:  -1.23 expect dE=-0.339E-06 dE for cont linesearch -0.190E-09
 trial: gam= 0.37520 g(F)=  0.249E-06 g(S)=  0.271E-07 ort = 0.135E-07 (trialstep = 0.148E+01)
 search vector abs. value=  0.452E-06
 bond charge predicted
       N       E                     dE             d eps       ncg     rms          rms(c)
DAV:   1    -0.413326741486E+02    0.21040E-06   -0.22487E-04 10536   0.808E-02    0.370E-03
DAV:   2    -0.413326746458E+02   -0.49720E-06   -0.69556E-06 12328   0.193E-02    0.188E-03
DAV:   3    -0.413326746206E+02    0.25292E-07   -0.24508E-07 12364   0.530E-03    0.114E-03
DAV:   4    -0.413326745939E+02    0.26672E-07   -0.61466E-08 12120   0.399E-03    0.278E-04
DAV:   5    -0.413326745969E+02   -0.30368E-08   -0.28258E-08  8692   0.191E-03
  28 F= -.41332675E+02 E0= -.41328221E+02  d E =-.236634E-06
 trial-energy change:   -0.000000  1 .order   -0.000000   -0.000000   -0.000000
 step:   1.5876(harm=  1.5876)  dis= 0.00012  next Energy=   -41.332675 (dE=-0.223E-06)
 bond charge predicted
       N       E                     dE             d eps       ncg     rms          rms(c)
DAV:   1    -0.413326745949E+02   -0.10596E-08   -0.11709E-06 10584   0.594E-03    0.333E-04
DAV:   2    -0.413326745952E+02   -0.28695E-09   -0.41067E-08 10848   0.152E-03
  29 F= -.41332675E+02 E0= -.41328221E+02  d E =-.234943E-06
 curvature:  -1.28 expect dE=-0.259E-06 dE for cont linesearch -0.338E-09
 trial: gam= 0.78794 g(F)=  0.170E-06 g(S)=  0.327E-07 ort =-0.109E-07 (trialstep = 0.146E+01)
 search vector abs. value=  0.466E-06
 bond charge predicted
       N       E                     dE             d eps       ncg     rms          rms(c)
DAV:   1    -0.413326744083E+02    0.18662E-06   -0.22099E-04  9940   0.904E-02    0.588E-03
DAV:   2    -0.413326748187E+02   -0.41033E-06   -0.10089E-05 11892   0.336E-02    0.287E-03
DAV:   3    -0.413326747220E+02    0.96695E-07   -0.75882E-07 12392   0.920E-03    0.156E-03
DAV:   4    -0.413326746460E+02    0.75940E-07   -0.11881E-07 12448   0.554E-03    0.434E-04
DAV:   5    -0.413326746389E+02    0.70809E-08   -0.44849E-08 10140   0.175E-03
  30 F= -.41332675E+02 E0= -.41328220E+02  d E =-.437099E-07
 trial-energy change:   -0.000000  1 .order   -0.000000   -0.000000    0.000000
 step:   0.8576(harm=  0.8576)  dis= 0.00006  next Energy=   -41.332675 (dE=-0.832E-07)
 bond charge predicted
       N       E                     dE             d eps       ncg     rms          rms(c)
DAV:   1    -0.413326745895E+02    0.56531E-07   -0.37353E-05  9948   0.371E-02    0.238E-03
DAV:   2    -0.413326746524E+02   -0.62897E-07   -0.16835E-06 11816   0.138E-02    0.116E-03
DAV:   3    -0.413326746671E+02   -0.14689E-07   -0.12726E-07 11788   0.376E-03    0.636E-04
DAV:   4    -0.413326746732E+02   -0.60841E-08   -0.16646E-08  6640   0.225E-03
  31 F= -.41332675E+02 E0= -.41328220E+02  d E =-.779310E-07
 curvature:  -1.03 expect dE=-0.100E-06 dE for cont linesearch -0.737E-09
 trial: gam= 0.21196 g(F)=  0.474E-07 g(S)=  0.497E-07 ort = 0.183E-07 (trialstep = 0.134E+01)
 search vector abs. value=  0.126E-06
 reached required accuracy - stopping structural energy minimisation
 writing wavefunctions
Tue Jan  4 00:34:48 CST 2022
