Mon Jan  3 23:37:10 CST 2022
 running on   48 total cores
 distrk:  each k-point on   48 cores,    1 groups
 distr:  one band on   24 cores,    2 groups
 using from now: INCAR     
 vasp.5.3.5 31Mar14 (build Jan 11 2016 19:50:55) complex                        
  
 POSCAR found type information on POSCAR  Zn Ga N  O 
 POSCAR found :  4 types and       8 ions
 scaLAPACK will be used

 ----------------------------------------------------------------------------- 
|                                                                             |
|           W    W    AA    RRRRR   N    N  II  N    N   GGGG   !!!           |
|           W    W   A  A   R    R  NN   N  II  NN   N  G    G  !!!           |
|           W    W  A    A  R    R  N N  N  II  N N  N  G       !!!           |
|           W WW W  AAAAAA  RRRRR   N  N N  II  N  N N  G  GGG   !            |
|           WW  WW  A    A  R   R   N   NN  II  N   NN  G    G                |
|           W    W  A    A  R    R  N    N  II  N    N   GGGG   !!!           |
|                                                                             |
|      For optimal performance we recommend to set                            |
|        NCORE= 4 - approx SQRT( number of cores)                             |
|      NCORE specifies how many cores store one orbital (NPAR=cpu/NCORE).     |
|      This setting can  greatly improve the performance of VASP for DFT.     |
|      The default, NPAR=number of cores might be grossly inefficient         |
|      on modern multi-core architectures or massively parallel machines.     |
|      Do your own testing !!!!                                               |
|      Unfortunately you need to use the default for GW and RPA calculations. |
|      (for HF NCORE is supported but not extensively tested yet)             |
|                                                                             |
 ----------------------------------------------------------------------------- 

 LDA part: xc-table for Pade appr. of Perdew
 POSCAR, INCAR and KPOINTS ok, starting setup
 WARNING: small aliasing (wrap around) errors must be expected
 FFT: planning ...
 WAVECAR not read
 entering main loop
       N       E                     dE             d eps       ncg     rms          rms(c)
DAV:   1     0.888945254266E+03    0.88895E+03   -0.41232E+04 10180   0.333E+03
DAV:   2     0.140054284738E+03   -0.74889E+03   -0.72007E+03  9912   0.776E+02
DAV:   3    -0.293872072930E+02   -0.16944E+03   -0.16424E+03 11360   0.265E+02
DAV:   4    -0.439942420333E+02   -0.14607E+02   -0.14436E+02 11832   0.783E+01
DAV:   5    -0.444714549377E+02   -0.47721E+00   -0.47537E+00 12604   0.139E+01    0.165E+01
DAV:   6    -0.380301326454E+02    0.64413E+01   -0.29386E+01 18484   0.774E+01    0.833E+00
DAV:   7    -0.382740363258E+02   -0.24390E+00   -0.70928E+00 10652   0.200E+01    0.558E+00
DAV:   8    -0.382293104425E+02    0.44726E-01   -0.90288E-01 15136   0.930E+00    0.260E+00
DAV:   9    -0.382184506022E+02    0.10860E-01   -0.16210E-01 12060   0.461E+00    0.703E-01
DAV:  10    -0.382121210419E+02    0.63296E-02   -0.65461E-02 14576   0.193E+00    0.244E-01
DAV:  11    -0.382126048454E+02   -0.48380E-03   -0.95458E-03 10648   0.980E-01    0.153E-01
DAV:  12    -0.382127254296E+02   -0.12058E-03   -0.15595E-03 13844   0.666E-01    0.823E-02
DAV:  13    -0.382128187675E+02   -0.93338E-04   -0.39044E-04 11740   0.319E-01    0.259E-02
DAV:  14    -0.382128258108E+02   -0.70433E-05   -0.10139E-04 12388   0.139E-01    0.161E-02
DAV:  15    -0.382128278611E+02   -0.20503E-05   -0.43669E-05 13168   0.637E-02    0.960E-03
DAV:  16    -0.382128296726E+02   -0.18115E-05   -0.10016E-05 11804   0.275E-02    0.364E-03
DAV:  17    -0.382128301158E+02   -0.44316E-06   -0.30686E-06 13144   0.205E-02    0.207E-03
DAV:  18    -0.382128301523E+02   -0.36484E-07   -0.73176E-07 12360   0.103E-02    0.927E-04
DAV:  19    -0.382128301217E+02    0.30547E-07   -0.16062E-07 10900   0.476E-03    0.422E-04
DAV:  20    -0.382128301160E+02    0.57557E-08   -0.18616E-08  7488   0.201E-03
   1 F= -.38212830E+02 E0= -.38210065E+02  d E =-.382128E+02
 curvature:   0.00 expect dE= 0.000E+00 dE for cont linesearch  0.000E+00
 trial: gam= 0.00000 g(F)=  0.635E-02 g(S)=  0.117E-02 ort = 0.000E+00 (trialstep = 0.100E+01)
 search vector abs. value=  0.753E-02
 bond charge predicted
       N       E                     dE             d eps       ncg     rms          rms(c)
DAV:   1    -0.382149305636E+02   -0.21004E-02   -0.13262E+00  9908   0.630E+00    0.468E-01
DAV:   2    -0.382174984495E+02   -0.25679E-02   -0.58960E-02 12272   0.216E+00    0.283E-01
DAV:   3    -0.382165767400E+02    0.92171E-03   -0.36637E-03 12036   0.662E-01    0.151E-01
DAV:   4    -0.382162197388E+02    0.35700E-03   -0.12414E-03 12124   0.351E-01    0.324E-02
DAV:   5    -0.382162380330E+02   -0.18294E-04   -0.29242E-04 11148   0.145E-01    0.168E-02
DAV:   6    -0.382162365850E+02    0.14480E-05   -0.27675E-05 12972   0.592E-02    0.985E-03
DAV:   7    -0.382162362244E+02    0.36063E-06   -0.61990E-06 13444   0.468E-02    0.407E-03
DAV:   8    -0.382162364730E+02   -0.24861E-06   -0.18267E-06 12540   0.148E-02    0.159E-03
DAV:   9    -0.382162364746E+02   -0.15789E-08   -0.26652E-07 11616   0.697E-03    0.863E-04
DAV:  10    -0.382162365055E+02   -0.30888E-07   -0.76078E-08 12484   0.464E-03    0.342E-04
DAV:  11    -0.382162365203E+02   -0.14816E-07   -0.14161E-08  6504   0.189E-03    0.962E-05
DAV:  12    -0.382162365232E+02   -0.29436E-08   -0.51171E-09  6180   0.724E-04
   2 F= -.38216237E+02 E0= -.38214238E+02  d E =-.340641E-02
 trial-energy change:   -0.003406  1 .order   -0.003413   -0.007526    0.000700
 step:   0.9149(harm=  0.9149)  dis= 0.01029  next Energy=   -38.216273 (dE=-0.344E-02)
 bond charge predicted
       N       E                     dE             d eps       ncg     rms          rms(c)
DAV:   1    -0.382162549670E+02   -0.18447E-04   -0.95980E-03  9920   0.535E-01    0.399E-02
DAV:   2    -0.382162735518E+02   -0.18585E-04   -0.42532E-04 12260   0.181E-01    0.239E-02
DAV:   3    -0.382162670234E+02    0.65284E-05   -0.26961E-05 12144   0.552E-02    0.128E-02
DAV:   4    -0.382162645176E+02    0.25058E-05   -0.91746E-06 11884   0.291E-02    0.271E-03
DAV:   5    -0.382162646391E+02   -0.12151E-06   -0.20861E-06 11292   0.123E-02    0.139E-03
DAV:   6    -0.382162646046E+02    0.34524E-07   -0.21314E-07 12744   0.520E-03    0.845E-04
DAV:   7    -0.382162645836E+02    0.20971E-07   -0.42816E-08 10788   0.400E-03    0.373E-04
DAV:   8    -0.382162645740E+02    0.96557E-08   -0.14134E-08  6668   0.147E-03
   3 F= -.38216265E+02 E0= -.38214209E+02  d E =-.343446E-02
 curvature:  -0.46 expect dE=-0.272E-02 dE for cont linesearch -0.172E-09
 trial: gam= 0.79121 g(F)=  0.438E-02 g(S)=  0.158E-02 ort =-0.168E-05 (trialstep = 0.694E+00)
 search vector abs. value=  0.107E-01
 bond charge predicted
       N       E                     dE             d eps       ncg     rms          rms(c)
DAV:   1    -0.382198065058E+02   -0.35419E-02   -0.84624E-01 10028   0.544E+00    0.455E-01
DAV:   2    -0.382197446392E+02    0.61867E-04   -0.35648E-02 11844   0.219E+00    0.245E-01
DAV:   3    -0.382190781645E+02    0.66647E-03   -0.30166E-03 12404   0.655E-01    0.120E-01
DAV:   4    -0.382188325687E+02    0.24560E-03   -0.70946E-04 13024   0.332E-01    0.229E-02
DAV:   5    -0.382188444535E+02   -0.11885E-04   -0.20358E-04 10736   0.120E-01    0.120E-02
DAV:   6    -0.382188441300E+02    0.32349E-06   -0.13679E-05 12892   0.362E-02    0.815E-03
DAV:   7    -0.382188437211E+02    0.40887E-06   -0.27386E-06 12708   0.365E-02    0.288E-03
DAV:   8    -0.382188437027E+02    0.18427E-07   -0.98974E-07 13984   0.147E-02    0.104E-03
DAV:   9    -0.382188437006E+02    0.20500E-08   -0.18191E-07 11140   0.326E-03    0.668E-04
DAV:  10    -0.382188436758E+02    0.24814E-07   -0.26934E-08  9108   0.117E-03    0.182E-04
DAV:  11    -0.382188436690E+02    0.68135E-08   -0.60489E-09  6208   0.787E-04
   4 F= -.38218844E+02 E0= -.38217039E+02  d E =-.257910E-02
 trial-energy change:   -0.002579  1 .order   -0.002583   -0.004130   -0.001036
 step:   0.9262(harm=  0.9262)  dis= 0.00874  next Energy=   -38.219021 (dE=-0.276E-02)
 bond charge predicted
       N       E                     dE             d eps       ncg     rms          rms(c)
DAV:   1    -0.382191244399E+02   -0.28076E-03   -0.94867E-02 10032   0.183E+00    0.153E-01
DAV:   2    -0.382191176775E+02    0.67623E-05   -0.40223E-03 11828   0.740E-01    0.822E-02
DAV:   3    -0.382190436861E+02    0.73991E-04   -0.33773E-04 12412   0.219E-01    0.401E-02
DAV:   4    -0.382190163358E+02    0.27350E-04   -0.78652E-05 13064   0.113E-01    0.763E-03
DAV:   5    -0.382190176862E+02   -0.13504E-05   -0.22772E-05 10732   0.404E-02    0.401E-03
DAV:   6    -0.382190176338E+02    0.52446E-07   -0.15152E-06 12832   0.119E-02    0.274E-03
DAV:   7    -0.382190175523E+02    0.81479E-07   -0.31141E-07 12552   0.123E-02    0.945E-04
DAV:   8    -0.382190175334E+02    0.18867E-07   -0.10836E-07 13272   0.493E-03    0.344E-04
DAV:   9    -0.382190175331E+02    0.32514E-09   -0.19803E-08  6796   0.111E-03
   5 F= -.38219018E+02 E0= -.38217291E+02  d E =-.275296E-02
 curvature:  -0.83 expect dE=-0.182E-02 dE for cont linesearch -0.156E-07
 trial: gam= 0.35410 g(F)=  0.155E-02 g(S)=  0.647E-03 ort = 0.142E-04 (trialstep = 0.740E+00)
 search vector abs. value=  0.354E-02
 bond charge predicted
       N       E                     dE             d eps       ncg     rms          rms(c)
DAV:   1    -0.382213263669E+02   -0.23088E-02   -0.30277E-01 10216   0.319E+00    0.305E-01
DAV:   2    -0.382209174142E+02    0.40895E-03   -0.99861E-03 12068   0.124E+00    0.181E-01
DAV:   3    -0.382203561348E+02    0.56128E-03   -0.15865E-03 12552   0.812E-01    0.620E-02
DAV:   4    -0.382203325307E+02    0.23604E-04   -0.44931E-04 11848   0.400E-01    0.149E-02
DAV:   5    -0.382203412658E+02   -0.87351E-05   -0.12366E-04 12680   0.878E-02    0.959E-03
DAV:   6    -0.382203407969E+02    0.46889E-06   -0.84917E-06 12500   0.374E-02    0.668E-03
DAV:   7    -0.382203406844E+02    0.11250E-06   -0.27694E-06 15372   0.386E-02    0.166E-03
DAV:   8    -0.382203407280E+02   -0.43603E-07   -0.97240E-07 12576   0.152E-02    0.116E-03
DAV:   9    -0.382203407408E+02   -0.12828E-07   -0.13536E-07 11984   0.283E-03    0.740E-04
DAV:  10    -0.382203407490E+02   -0.81909E-08   -0.26428E-08  8628   0.202E-03
   6 F= -.38220341E+02 E0= -.38218712E+02  d E =-.132322E-02
 trial-energy change:   -0.001323  1 .order   -0.001324   -0.001628   -0.001020
 step:   1.9813(harm=  1.9813)  dis= 0.00739  next Energy=   -38.221196 (dE=-0.218E-02)
 bond charge predicted
       N       E                     dE             d eps       ncg     rms          rms(c)
DAV:   1    -0.382239601007E+02   -0.36194E-02   -0.85044E-01 10232   0.536E+00    0.511E-01
DAV:   2    -0.382228087072E+02    0.11514E-02   -0.27930E-02 11956   0.208E+00    0.304E-01
DAV:   3    -0.382212401970E+02    0.15685E-02   -0.45220E-03 12424   0.137E+00    0.104E-01
DAV:   4    -0.382211764154E+02    0.63782E-04   -0.12805E-03 11780   0.684E-01    0.249E-02
DAV:   5    -0.382212021645E+02   -0.25749E-04   -0.36010E-04 12788   0.151E-01    0.161E-02
DAV:   6    -0.382212007309E+02    0.14336E-05   -0.24196E-05 12592   0.656E-02    0.111E-02
DAV:   7    -0.382212003718E+02    0.35917E-06   -0.79344E-06 15388   0.620E-02    0.290E-03
DAV:   8    -0.382212005011E+02   -0.12939E-06   -0.27547E-06 12172   0.239E-02    0.195E-03
DAV:   9    -0.382212005271E+02   -0.25956E-07   -0.38848E-07 12184   0.516E-03    0.128E-03
DAV:  10    -0.382212005431E+02   -0.16028E-07   -0.99038E-08 12460   0.395E-03    0.447E-04
DAV:  11    -0.382212005459E+02   -0.27762E-08   -0.27898E-08  8452   0.216E-03
   7 F= -.38221201E+02 E0= -.38219725E+02  d E =-.218301E-02
 curvature:  -1.60 expect dE=-0.255E-02 dE for cont linesearch -0.549E-07
 trial: gam= 0.73949 g(F)=  0.132E-02 g(S)=  0.278E-03 ort = 0.110E-04 (trialstep = 0.985E+00)
 search vector abs. value=  0.355E-02
 bond charge predicted
       N       E                     dE             d eps       ncg     rms          rms(c)
DAV:   1    -0.382217060839E+02   -0.50554E-03   -0.64115E-01 10124   0.446E+00    0.253E-01
DAV:   2    -0.382227141574E+02   -0.10081E-02   -0.18473E-02 12156   0.109E+00    0.150E-01
DAV:   3    -0.382223856006E+02    0.32856E-03   -0.85767E-04 14208   0.283E-01    0.627E-02
DAV:   4    -0.382223314941E+02    0.54106E-04   -0.24631E-04 12228   0.189E-01    0.133E-02
DAV:   5    -0.382223357124E+02   -0.42183E-05   -0.69705E-05 11004   0.937E-02    0.885E-03
DAV:   6    -0.382223358882E+02   -0.17576E-06   -0.91362E-06 12488   0.503E-02    0.520E-03
DAV:   7    -0.382223358273E+02    0.60828E-07   -0.16643E-06 12036   0.258E-02    0.261E-03
DAV:   8    -0.382223359199E+02   -0.92617E-07   -0.77698E-07 12112   0.711E-03    0.831E-04
DAV:   9    -0.382223359144E+02    0.55325E-08   -0.10533E-07 11368   0.360E-03    0.465E-04
DAV:  10    -0.382223359226E+02   -0.82086E-08   -0.33573E-08  8736   0.226E-03
   8 F= -.38222336E+02 E0= -.38220983E+02  d E =-.113538E-02
 trial-energy change:   -0.001135  1 .order   -0.001130   -0.001585   -0.000676
 step:   1.6798(harm=  1.7185)  dis= 0.00774  next Energy=   -38.222576 (dE=-0.138E-02)
 bond charge predicted
       N       E                     dE             d eps       ncg     rms          rms(c)
DAV:   1    -0.382222777047E+02    0.58210E-04   -0.31852E-01 10124   0.314E+00    0.178E-01
DAV:   2    -0.382227751916E+02   -0.49749E-03   -0.91468E-03 12196   0.765E-01    0.106E-01
DAV:   3    -0.382226121608E+02    0.16303E-03   -0.42679E-04 14184   0.200E-01    0.441E-02
DAV:   4    -0.382225854210E+02    0.26740E-04   -0.12278E-04 12032   0.134E-01    0.938E-03
DAV:   5    -0.382225875790E+02   -0.21581E-05   -0.34904E-05 11028   0.665E-02    0.624E-03
DAV:   6    -0.382225876803E+02   -0.10122E-06   -0.45675E-06 12432   0.355E-02    0.368E-03
DAV:   7    -0.382225876571E+02    0.23120E-07   -0.82992E-07 12008   0.183E-02    0.187E-03
DAV:   8    -0.382225877119E+02   -0.54747E-07   -0.38977E-07 11964   0.509E-03    0.588E-04
DAV:   9    -0.382225877096E+02    0.22915E-08   -0.53716E-08 10312   0.260E-03
   9 F= -.38222588E+02 E0= -.38221315E+02  d E =-.138716E-02
 curvature:  -1.89 expect dE=-0.173E-02 dE for cont linesearch -0.453E-06
 trial: gam= 0.55145 g(F)=  0.765E-03 g(S)=  0.148E-03 ort = 0.292E-04 (trialstep = 0.112E+01)
 search vector abs. value=  0.203E-02
 bond charge predicted
       N       E                     dE             d eps       ncg     rms          rms(c)
DAV:   1    -0.382230297961E+02   -0.44208E-03   -0.51473E-01 10036   0.406E+00    0.241E-01
DAV:   2    -0.382236631303E+02   -0.63333E-03   -0.15901E-02 12136   0.989E-01    0.136E-01
DAV:   3    -0.382233260290E+02    0.33710E-03   -0.77209E-04 13272   0.265E-01    0.597E-02
DAV:   4    -0.382232668967E+02    0.59132E-04   -0.24044E-04 11280   0.153E-01    0.129E-02
DAV:   5    -0.382232722789E+02   -0.53822E-05   -0.78383E-05 10760   0.925E-02    0.920E-03
DAV:   6    -0.382232719626E+02    0.31626E-06   -0.56760E-06 12560   0.384E-02    0.405E-03
DAV:   7    -0.382232720281E+02   -0.65481E-07   -0.14469E-06 12680   0.208E-02    0.139E-03
DAV:   8    -0.382232720546E+02   -0.26513E-07   -0.37438E-07 11068   0.821E-03    0.752E-04
DAV:   9    -0.382232720641E+02   -0.94528E-08   -0.10265E-07 12456   0.347E-03    0.447E-04
DAV:  10    -0.382232720659E+02   -0.18190E-08   -0.13499E-08  6296   0.202E-03
  10 F= -.38223272E+02 E0= -.38222053E+02  d E =-.684356E-03
 trial-energy change:   -0.000684  1 .order   -0.000681   -0.001044   -0.000318
 step:   1.5973(harm=  1.6167)  dis= 0.00765  next Energy=   -38.223339 (dE=-0.752E-03)
 bond charge predicted
       N       E                     dE             d eps       ncg     rms          rms(c)
DAV:   1    -0.382232956151E+02   -0.23551E-04   -0.91132E-02 10040   0.171E+00    0.101E-01
DAV:   2    -0.382234062819E+02   -0.11067E-03   -0.27995E-03 12136   0.415E-01    0.574E-02
DAV:   3    -0.382233466965E+02    0.59585E-04   -0.13740E-04 13296   0.111E-01    0.251E-02
DAV:   4    -0.382233363558E+02    0.10341E-04   -0.42318E-05 11336   0.634E-02    0.543E-03
DAV:   5    -0.382233372524E+02   -0.89657E-06   -0.13642E-05 10796   0.392E-02    0.386E-03
DAV:   6    -0.382233372121E+02    0.40270E-07   -0.10540E-06 12464   0.172E-02    0.178E-03
DAV:   7    -0.382233372290E+02   -0.16858E-07   -0.26605E-07 12672   0.915E-03    0.628E-04
DAV:   8    -0.382233372362E+02   -0.71987E-08   -0.69670E-08 10804   0.360E-03
  11 F= -.38223337E+02 E0= -.38222141E+02  d E =-.749527E-03
 curvature:  -1.76 expect dE=-0.270E-02 dE for cont linesearch -0.876E-07
 trial: gam= 1.68897 g(F)=  0.991E-03 g(S)=  0.545E-03 ort = 0.100E-04 (trialstep = 0.336E+00)
 search vector abs. value=  0.735E-02
 bond charge predicted
       N       E                     dE             d eps       ncg     rms          rms(c)
DAV:   1    -0.382239965051E+02   -0.65928E-03   -0.17536E-01  9996   0.267E+00    0.220E-01
DAV:   2    -0.382239306984E+02    0.65807E-04   -0.10060E-02 11544   0.110E+00    0.970E-02
DAV:   3    -0.382238297565E+02    0.10094E-03   -0.72460E-04 12904   0.296E-01    0.497E-02
DAV:   4    -0.382237752044E+02    0.54552E-04   -0.13601E-04 12972   0.147E-01    0.143E-02
DAV:   5    -0.382237748891E+02    0.31529E-06   -0.45558E-05 10808   0.568E-02    0.510E-03
DAV:   6    -0.382237750691E+02   -0.17998E-06   -0.53374E-06 12292   0.257E-02    0.343E-03
DAV:   7    -0.382237750494E+02    0.19740E-07   -0.62282E-07 12156   0.181E-02    0.206E-03
DAV:   8    -0.382237751016E+02   -0.52230E-07   -0.28644E-07 15428   0.583E-03    0.617E-04
DAV:   9    -0.382237751118E+02   -0.10160E-07   -0.75914E-08 11952   0.302E-03    0.293E-04
DAV:  10    -0.382237751209E+02   -0.91045E-08   -0.96830E-09  6180   0.970E-04
  12 F= -.38223775E+02 E0= -.38222643E+02  d E =-.437885E-03
 trial-energy change:   -0.000438  1 .order   -0.000437   -0.000522   -0.000353
 step:   1.0363(harm=  1.0363)  dis= 0.00824  next Energy=   -38.224142 (dE=-0.805E-03)
 bond charge predicted
       N       E                     dE             d eps       ncg     rms          rms(c)
DAV:   1    -0.382250814184E+02   -0.13063E-02   -0.76236E-01  9996   0.559E+00    0.458E-01
DAV:   2    -0.382248143854E+02    0.26703E-03   -0.43728E-02 11540   0.230E+00    0.202E-01
DAV:   3    -0.382243821007E+02    0.43228E-03   -0.31428E-03 12892   0.617E-01    0.103E-01
DAV:   4    -0.382241472354E+02    0.23487E-03   -0.58848E-04 13004   0.308E-01    0.298E-02
DAV:   5    -0.382241462088E+02    0.10266E-05   -0.19669E-04 10808   0.119E-01    0.106E-02
DAV:   6    -0.382241470088E+02   -0.80003E-06   -0.23738E-05 12272   0.553E-02    0.716E-03
DAV:   7    -0.382241468324E+02    0.17643E-06   -0.27381E-06 12088   0.378E-02    0.433E-03
DAV:   8    -0.382241469184E+02   -0.86031E-07   -0.12487E-06 15588   0.122E-02    0.128E-03
DAV:   9    -0.382241469459E+02   -0.27434E-07   -0.33469E-07 12684   0.640E-03    0.610E-04
DAV:  10    -0.382241469664E+02   -0.20560E-07   -0.47385E-08 10700   0.213E-03    0.367E-04
DAV:  11    -0.382241469838E+02   -0.17422E-07   -0.81122E-09  6216   0.101E-03    0.103E-04
DAV:  12    -0.382241469912E+02   -0.73610E-08   -0.27856E-09  6116   0.804E-04
  13 F= -.38224147E+02 E0= -.38223138E+02  d E =-.809755E-03
 curvature:  -2.45 expect dE=-0.230E-02 dE for cont linesearch -0.169E-07
 trial: gam= 0.61629 g(F)=  0.821E-03 g(S)=  0.119E-03 ort = 0.711E-05 (trialstep = 0.476E+00)
 search vector abs. value=  0.374E-02
 bond charge predicted
       N       E                     dE             d eps       ncg     rms          rms(c)
DAV:   1    -0.382247566958E+02   -0.60971E-03   -0.18571E-01  9948   0.259E+00    0.201E-01
DAV:   2    -0.382247474768E+02    0.92191E-05   -0.84043E-03 11216   0.926E-01    0.955E-02
DAV:   3    -0.382246220463E+02    0.12543E-03   -0.56806E-04 12712   0.270E-01    0.480E-02
DAV:   4    -0.382245697088E+02    0.52338E-04   -0.14236E-04 13128   0.148E-01    0.121E-02
DAV:   5    -0.382245717157E+02   -0.20069E-05   -0.50345E-05 10736   0.588E-02    0.543E-03
DAV:   6    -0.382245717724E+02   -0.56656E-07   -0.42344E-06 12952   0.188E-02    0.328E-03
DAV:   7    -0.382245717495E+02    0.22849E-07   -0.60628E-07 13444   0.118E-02    0.173E-03
DAV:   8    -0.382245717793E+02   -0.29846E-07   -0.20775E-07 12216   0.592E-03    0.414E-04
DAV:   9    -0.382245717901E+02   -0.10786E-07   -0.56966E-08 10788   0.277E-03    0.321E-04
DAV:  10    -0.382245717933E+02   -0.32155E-08   -0.78066E-09  6152   0.103E-03
  14 F= -.38224572E+02 E0= -.38223584E+02  d E =-.424802E-03
 ZBRENT: can't locate minimum, use default step
 trial-energy change:   -0.000425  1 .order   -0.000420   -0.000450   -0.000390
 step:   1.9040(harm=  3.5684)  dis= 0.00645  next Energy=   -38.225832 (dE=-0.169E-02)
 bond charge predicted
       N       E                     dE             d eps       ncg     rms          rms(c)
DAV:   1    -0.382270945991E+02   -0.25228E-02   -0.16731E+00  9948   0.780E+00    0.604E-01
DAV:   2    -0.382270543758E+02    0.40223E-04   -0.75756E-02 11216   0.280E+00    0.286E-01
DAV:   3    -0.382259388693E+02    0.11155E-02   -0.51477E-03 12824   0.817E-01    0.143E-01
DAV:   4    -0.382254711388E+02    0.46773E-03   -0.12704E-03 13184   0.444E-01    0.366E-02
DAV:   5    -0.382254891314E+02   -0.17993E-04   -0.45039E-04 10728   0.172E-01    0.161E-02
DAV:   6    -0.382254894520E+02   -0.32064E-06   -0.37921E-05 12820   0.554E-02    0.970E-03
DAV:   7    -0.382254890732E+02    0.37882E-06   -0.51154E-06 13136   0.328E-02    0.512E-03
DAV:   8    -0.382254891394E+02   -0.66203E-07   -0.17255E-06 12192   0.155E-02    0.113E-03
DAV:   9    -0.382254892006E+02   -0.61189E-07   -0.47984E-07 11152   0.652E-03    0.924E-04
DAV:  10    -0.382254892091E+02   -0.84860E-08   -0.60138E-08 10608   0.284E-03
  15 F= -.38225489E+02 E0= -.38224561E+02  d E =-.134222E-02
 curvature:  -5.02 expect dE=-0.367E-02 dE for cont linesearch -0.279E-03
 ZBRENT: increasing intervall
 opt :   4.7601  next Energy=   -38.225755 (dE=-0.161E-02)
 bond charge predicted
       N       E                     dE             d eps       ncg     rms          rms(c)
DAV:   1    -0.382317852182E+02   -0.62960E-02   -0.67002E+00  9944   0.157E+01    0.121E+00
DAV:   2    -0.382319946054E+02   -0.20939E-03   -0.30416E-01 11180   0.568E+00    0.570E-01
DAV:   3    -0.382276132254E+02    0.43814E-02   -0.20822E-02 12956   0.166E+00    0.286E-01
DAV:   4    -0.382257575331E+02    0.18557E-02   -0.50181E-03 13156   0.889E-01    0.749E-02
DAV:   5    -0.382258233325E+02   -0.65799E-04   -0.18038E-03 10736   0.335E-01    0.317E-02
DAV:   6    -0.382258251602E+02   -0.18277E-05   -0.15700E-04 12744   0.115E-01    0.193E-02
DAV:   7    -0.382258234129E+02    0.17473E-05   -0.18550E-05 12920   0.638E-02    0.104E-02
DAV:   8    -0.382258236307E+02   -0.21779E-06   -0.66641E-06 12324   0.318E-02    0.231E-03
DAV:   9    -0.382258238284E+02   -0.19771E-06   -0.18166E-06 11272   0.147E-02    0.189E-03
DAV:  10    -0.382258238526E+02   -0.24182E-07   -0.25149E-07 11448   0.605E-03    0.105E-03
DAV:  11    -0.382258238831E+02   -0.30569E-07   -0.70699E-08 11472   0.383E-03    0.393E-04
DAV:  12    -0.382258238953E+02   -0.12198E-07   -0.15353E-08  6360   0.205E-03    0.161E-04
DAV:  13    -0.382258239008E+02   -0.54438E-08   -0.63539E-09  6112   0.809E-04
  16 F= -.38225824E+02 E0= -.38224993E+02  d E =-.167691E-02
 curvature:  -4.78 expect dE=-0.167E-01 dE for cont linesearch -0.678E-04
 ZBRENT: bracketing found
 ZBRENT: interpolating
 opt :   3.8018  next Energy=   -38.225934 (dE=-0.179E-02)
 bond charge predicted
       N       E                     dE             d eps       ncg     rms          rms(c)
DAV:   1    -0.382267252515E+02   -0.90136E-03   -0.74942E-01  9948   0.514E+00    0.404E-01
DAV:   2    -0.382266278631E+02    0.97388E-04   -0.33527E-02 11176   0.182E+00    0.189E-01
DAV:   3    -0.382261317768E+02    0.49609E-03   -0.22690E-03 12720   0.531E-01    0.968E-02
DAV:   4    -0.382259219515E+02    0.20983E-03   -0.56983E-04 13204   0.296E-01    0.245E-02
DAV:   5    -0.382259305206E+02   -0.85691E-05   -0.20649E-04 10748   0.121E-01    0.112E-02
DAV:   6    -0.382259306234E+02   -0.10276E-06   -0.19031E-05 12988   0.392E-02    0.684E-03
DAV:   7    -0.382259303289E+02    0.29448E-06   -0.27671E-06 13192   0.228E-02    0.385E-03
DAV:   8    -0.382259301658E+02    0.16314E-06   -0.83210E-07 12400   0.108E-02    0.749E-04
DAV:   9    -0.382259301823E+02   -0.16537E-07   -0.28634E-07 10864   0.412E-03    0.668E-04
DAV:  10    -0.382259301762E+02    0.61568E-08   -0.19980E-08  6600   0.163E-03
  17 F= -.38225930E+02 E0= -.38225070E+02  d E =-.178318E-02
 curvature:  -7.78 expect dE=-0.168E-01 dE for cont linesearch -0.136E-07
 trial: gam= 2.38039 g(F)=  0.189E-02 g(S)=  0.271E-03 ort =-0.256E-05 (trialstep = 0.183E+00)
 search vector abs. value=  0.233E-01
 bond charge predicted
       N       E                     dE             d eps       ncg     rms          rms(c)
DAV:   1    -0.382262792906E+02   -0.34911E-03   -0.17308E-01  9988   0.233E+00    0.149E-01
DAV:   2    -0.382264368865E+02   -0.15760E-03   -0.55354E-03 10808   0.628E-01    0.753E-02
DAV:   3    -0.382263472572E+02    0.89629E-04   -0.33909E-04 13136   0.193E-01    0.389E-02
DAV:   4    -0.382263171519E+02    0.30105E-04   -0.92264E-05 12548   0.123E-01    0.844E-03
DAV:   5    -0.382263192675E+02   -0.21156E-05   -0.34634E-05 10760   0.561E-02    0.505E-03
DAV:   6    -0.382263194026E+02   -0.13506E-06   -0.38445E-06 12904   0.177E-02    0.308E-03
DAV:   7    -0.382263193801E+02    0.22508E-07   -0.39188E-07 13384   0.108E-02    0.184E-03
DAV:   8    -0.382263194340E+02   -0.53938E-07   -0.20447E-07 12092   0.461E-03    0.453E-04
DAV:   9    -0.382263194428E+02   -0.88025E-08   -0.52228E-08 10664   0.210E-03
  18 F= -.38226319E+02 E0= -.38225473E+02  d E =-.389267E-03
 ZBRENT: can't locate minimum, use default step
 trial-energy change:   -0.000389  1 .order   -0.000390   -0.000394   -0.000385
 step:   0.7314(harm=  7.7570)  dis= 0.00745  next Energy=   -38.234292 (dE=-0.836E-02)
 bond charge predicted
       N       E                     dE             d eps       ncg     rms          rms(c)
DAV:   1    -0.382270324414E+02   -0.71301E-03   -0.15583E+00  9988   0.702E+00    0.449E-01
DAV:   2    -0.382284800946E+02   -0.14477E-02   -0.50089E-02 10808   0.192E+00    0.226E-01
DAV:   3    -0.382276851074E+02    0.79499E-03   -0.31555E-03 13148   0.592E-01    0.117E-01
DAV:   4    -0.382274120981E+02    0.27301E-03   -0.82826E-04 12484   0.367E-01    0.255E-02
DAV:   5    -0.382274312600E+02   -0.19162E-04   -0.31242E-04 10760   0.160E-01    0.149E-02
DAV:   6    -0.382274320730E+02   -0.81302E-06   -0.32813E-05 13136   0.512E-02    0.882E-03
DAV:   7    -0.382274316954E+02    0.37762E-06   -0.33791E-06 12820   0.246E-02    0.528E-03
DAV:   8    -0.382274318922E+02   -0.19681E-06   -0.17188E-06 12068   0.126E-02    0.127E-03
DAV:   9    -0.382274319301E+02   -0.37903E-07   -0.43250E-07 10816   0.564E-03    0.820E-04
DAV:  10    -0.382274319374E+02   -0.72682E-08   -0.63590E-08 11244   0.212E-03
  19 F= -.38227432E+02 E0= -.38226627E+02  d E =-.150176E-02
 curvature:  -5.86 expect dE=-0.110E-01 dE for cont linesearch -0.934E-03
 ZBRENT: increasing intervall
 opt :   1.8284  next Energy=   -38.229353 (dE=-0.342E-02)
 bond charge predicted
       N       E                     dE             d eps       ncg     rms          rms(c)
DAV:   1    -0.382273950451E+02    0.36885E-04   -0.62366E+00  9992   0.141E+01    0.903E-01
DAV:   2    -0.382334597326E+02   -0.60647E-02   -0.20247E-01 10804   0.394E+00    0.451E-01
DAV:   3    -0.382303553782E+02    0.31044E-02   -0.13267E-02 13164   0.124E+00    0.237E-01
DAV:   4    -0.382292584921E+02    0.10969E-02   -0.33473E-03 12376   0.732E-01    0.525E-02
DAV:   5    -0.382293328354E+02   -0.74343E-04   -0.12511E-03 10748   0.301E-01    0.289E-02
DAV:   6    -0.382293356282E+02   -0.27928E-05   -0.12465E-04 13436   0.105E-01    0.172E-02
DAV:   7    -0.382293341579E+02    0.14703E-05   -0.13482E-05 12428   0.492E-02    0.103E-02
DAV:   8    -0.382293347106E+02   -0.55267E-06   -0.72373E-06 14460   0.319E-02    0.286E-03
DAV:   9    -0.382293347583E+02   -0.47762E-07   -0.15791E-06 12476   0.175E-02    0.165E-03
DAV:  10    -0.382293347934E+02   -0.35038E-07   -0.34430E-07 12316   0.416E-03    0.975E-04
DAV:  11    -0.382293347966E+02   -0.32078E-08   -0.49433E-08 10844   0.257E-03
  20 F= -.38229335E+02 E0= -.38228601E+02  d E =-.340462E-02
 curvature: -12.06 expect dE=-0.299E-01 dE for cont linesearch -0.115E-02
 ZBRENT: increasing intervall
 opt :   4.0226  next Energy=   -38.231646 (dE=-0.572E-02)
 bond charge predicted
       N       E                     dE             d eps       ncg     rms          rms(c)
DAV:   1    -0.382195271870E+02    0.98076E-02   -0.24979E+01  9976   0.285E+01    0.182E+00
DAV:   2    -0.382474067168E+02   -0.27880E-01   -0.83940E-01 10796   0.832E+00    0.906E-01
DAV:   3    -0.382355029069E+02    0.11904E-01   -0.58375E-02 13308   0.275E+00    0.488E-01
DAV:   4    -0.382310232603E+02    0.44796E-02   -0.14021E-02 12200   0.147E+00    0.113E-01
DAV:   5    -0.382312827353E+02   -0.25948E-03   -0.50459E-03 10736   0.571E-01    0.561E-02
DAV:   6    -0.382312948172E+02   -0.12082E-04   -0.47102E-04 13572   0.264E-01    0.351E-02
DAV:   7    -0.382312906246E+02    0.41926E-05   -0.65477E-05 12012   0.141E-01    0.190E-02
DAV:   8    -0.382312929918E+02   -0.23672E-05   -0.29499E-05 14856   0.710E-02    0.579E-03
DAV:   9    -0.382312930613E+02   -0.69513E-07   -0.56729E-06 12288   0.343E-02    0.359E-03
DAV:  10    -0.382312931750E+02   -0.11374E-06   -0.14099E-06 11424   0.907E-03    0.163E-03
DAV:  11    -0.382312932080E+02   -0.32940E-07   -0.21936E-07 11760   0.487E-03    0.669E-04
DAV:  12    -0.382312932285E+02   -0.20554E-07   -0.72402E-08 11312   0.278E-03    0.339E-04
DAV:  13    -0.382312932339E+02   -0.53456E-08   -0.82681E-09  6172   0.124E-03
  21 F= -.38231293E+02 E0= -.38230648E+02  d E =-.536306E-02
 curvature: -24.27 expect dE=-0.215E+00 dE for cont linesearch -0.185E-04
 trial: gam= 3.88587 g(F)=  0.466E-02 g(S)=  0.421E-02 ort = 0.133E-03 (trialstep = 0.612E-01)
 search vector abs. value=  0.362E+00
 bond charge predicted
       N       E                     dE             d eps       ncg     rms          rms(c)
DAV:   1    -0.382319618283E+02   -0.66860E-03   -0.30041E-01  9980   0.317E+00    0.226E-01
DAV:   2    -0.382320731441E+02   -0.11132E-03   -0.11051E-02 10900   0.101E+00    0.105E-01
DAV:   3    -0.382319334751E+02    0.13967E-03   -0.76872E-04 13036   0.302E-01    0.569E-02
DAV:   4    -0.382318687266E+02    0.64749E-04   -0.17184E-04 13244   0.175E-01    0.144E-02
DAV:   5    -0.382318703223E+02   -0.15958E-05   -0.64886E-05 10792   0.702E-02    0.640E-03
DAV:   6    -0.382318706591E+02   -0.33673E-06   -0.81718E-06 13224   0.277E-02    0.410E-03
DAV:   7    -0.382318706334E+02    0.25678E-07   -0.85684E-07 12552   0.175E-02    0.261E-03
DAV:   8    -0.382318707147E+02   -0.81340E-07   -0.43713E-07 14364   0.760E-03    0.896E-04
DAV:   9    -0.382318707249E+02   -0.10166E-07   -0.12065E-07 12452   0.409E-03    0.386E-04
DAV:  10    -0.382318707321E+02   -0.72127E-08   -0.28425E-08  9288   0.165E-03
  22 F= -.38231871E+02 E0= -.38231232E+02  d E =-.577498E-03
 ZBRENT: can't locate minimum, use default step
 trial-energy change:   -0.000577  1 .order   -0.000575   -0.000575   -0.000575
 step:   0.2450(harm=341.2878)  dis= 0.01011  next Energy=   -39.833563 (dE=-0.160E+01)
 bond charge predicted
       N       E                     dE             d eps       ncg     rms          rms(c)
DAV:   1    -0.382342403217E+02   -0.23696E-02   -0.27066E+00  9976   0.956E+00    0.681E-01
DAV:   2    -0.382353942258E+02   -0.11539E-02   -0.10058E-01 10860   0.310E+00    0.314E-01
DAV:   3    -0.382341626802E+02    0.12315E-02   -0.71163E-03 13072   0.936E-01    0.171E-01
DAV:   4    -0.382335818323E+02    0.58085E-03   -0.15477E-03 13132   0.527E-01    0.441E-02
DAV:   5    -0.382335946835E+02   -0.12851E-04   -0.57999E-04 10752   0.205E-01    0.190E-02
DAV:   6    -0.382335976170E+02   -0.29334E-05   -0.74184E-05 13376   0.920E-02    0.123E-02
DAV:   7    -0.382335971125E+02    0.50442E-06   -0.77280E-06 12288   0.534E-02    0.780E-03
DAV:   8    -0.382335973818E+02   -0.26931E-06   -0.39661E-06 14832   0.221E-02    0.252E-03
DAV:   9    -0.382335974056E+02   -0.23746E-07   -0.10091E-06 12488   0.115E-02    0.109E-03
DAV:  10    -0.382335974421E+02   -0.36518E-07   -0.23963E-07 11468   0.448E-03    0.719E-04
DAV:  11    -0.382335974483E+02   -0.62164E-08   -0.30190E-08  9288   0.219E-03
  23 F= -.38233597E+02 E0= -.38232970E+02  d E =-.230421E-02
 curvature:  -7.09 expect dE=-0.758E-01 dE for cont linesearch -0.168E-02
 ZBRENT: increasing intervall
 opt :   0.6124  next Energy=   -38.236950 (dE=-0.566E-02)
 bond charge predicted
       N       E                     dE             d eps       ncg     rms          rms(c)
DAV:   1    -0.382379955624E+02   -0.43981E-02   -0.10840E+01  9976   0.193E+01    0.137E+00
DAV:   2    -0.382439144258E+02   -0.59189E-02   -0.41118E-01 10856   0.644E+00    0.629E-01
DAV:   3    -0.382391210939E+02    0.47933E-02   -0.29539E-02 13096   0.197E+00    0.341E-01
DAV:   4    -0.382368131014E+02    0.23080E-02   -0.62541E-03 12956   0.105E+00    0.907E-02
DAV:   5    -0.382368545572E+02   -0.41456E-04   -0.23108E-03 10748   0.402E-01    0.380E-02
DAV:   6    -0.382368672470E+02   -0.12690E-04   -0.30349E-04 12928   0.216E-01    0.247E-02
DAV:   7    -0.382368654684E+02    0.17786E-05   -0.34919E-05 11980   0.114E-01    0.152E-02
DAV:   8    -0.382368661252E+02   -0.65680E-06   -0.15554E-05 14844   0.479E-02    0.448E-03
DAV:   9    -0.382368663249E+02   -0.19967E-06   -0.38130E-06 11908   0.226E-02    0.216E-03
DAV:  10    -0.382368664408E+02   -0.11589E-06   -0.81431E-07 11272   0.793E-03    0.148E-03
DAV:  11    -0.382368664703E+02   -0.29520E-07   -0.12898E-07 12652   0.517E-03    0.481E-04
DAV:  12    -0.382368664956E+02   -0.25319E-07   -0.47391E-08 10720   0.226E-03    0.232E-04
DAV:  13    -0.382368664991E+02   -0.35020E-08   -0.48688E-09  6192   0.975E-04
  24 F= -.38236866E+02 E0= -.38236211E+02  d E =-.557327E-02
 curvature: -14.18 expect dE=-0.215E+00 dE for cont linesearch -0.268E-02
 ZBRENT: increasing intervall
 opt :   1.3474  next Energy=   -38.242239 (dE=-0.109E-01)
 bond charge predicted
       N       E                     dE             d eps       ncg     rms          rms(c)
DAV:   1    -0.382300471434E+02    0.68194E-02   -0.43490E+01  9972   0.395E+01    0.275E+00
DAV:   2    -0.382686044947E+02   -0.38557E-01   -0.17539E+00 10836   0.138E+01    0.127E+00
DAV:   3    -0.382503047749E+02    0.18300E-01   -0.12786E-01 13268   0.432E+00    0.688E-01
DAV:   4    -0.382410816374E+02    0.92231E-02   -0.26327E-02 12648   0.207E+00    0.193E-01
DAV:   5    -0.382411250968E+02   -0.43459E-04   -0.91994E-03 10756   0.821E-01    0.793E-02
DAV:   6    -0.382411904579E+02   -0.65361E-04   -0.13829E-03 12048   0.555E-01    0.488E-02
DAV:   7    -0.382411887973E+02    0.16606E-05   -0.19606E-04 12444   0.266E-01    0.290E-02
DAV:   8    -0.382411903280E+02   -0.15307E-05   -0.60377E-05 14592   0.107E-01    0.804E-03
DAV:   9    -0.382411922176E+02   -0.18897E-05   -0.17004E-05 10736   0.343E-02    0.480E-03
DAV:  10    -0.382411925024E+02   -0.28480E-06   -0.23972E-06 11868   0.161E-02    0.236E-03
DAV:  11    -0.382411926404E+02   -0.13800E-06   -0.48824E-07 12880   0.127E-02    0.708E-04
DAV:  12    -0.382411926803E+02   -0.39890E-07   -0.13341E-07 11504   0.400E-03    0.399E-04
DAV:  13    -0.382411926849E+02   -0.45648E-08   -0.17308E-08  6504   0.116E-03
  25 F= -.38241193E+02 E0= -.38240313E+02  d E =-.989945E-02
 curvature: -28.37 expect dE=-0.905E+00 dE for cont linesearch -0.574E-03
 trial: gam= 2.03738 g(F)=  0.213E-01 g(S)=  0.106E-01 ort = 0.271E-02 (trialstep = 0.746E-01)
 search vector abs. value=  0.155E+01
 bond charge predicted
       N       E                     dE             d eps       ncg     rms          rms(c)
DAV:   1    -0.382454518113E+02   -0.42591E-02   -0.18889E+00  9980   0.818E+00    0.627E-01
DAV:   2    -0.382453313335E+02    0.12048E-03   -0.78486E-02 10832   0.296E+00    0.284E-01
DAV:   3    -0.382444108220E+02    0.92051E-03   -0.55881E-03 13200   0.910E-01    0.152E-01
DAV:   4    -0.382439505804E+02    0.46024E-03   -0.11782E-03 13172   0.485E-01    0.420E-02
DAV:   5    -0.382439527046E+02   -0.21242E-05   -0.44916E-04 10732   0.196E-01    0.169E-02
DAV:   6    -0.382439558887E+02   -0.31842E-05   -0.67981E-05 12388   0.101E-01    0.114E-02
DAV:   7    -0.382439556443E+02    0.24446E-06   -0.78804E-06 11700   0.557E-02    0.697E-03
DAV:   8    -0.382439558920E+02   -0.24776E-06   -0.31528E-06 15552   0.198E-02    0.247E-03
DAV:   9    -0.382439559795E+02   -0.87477E-07   -0.91494E-07 12332   0.966E-03    0.944E-04
DAV:  10    -0.382439560247E+02   -0.45200E-07   -0.15947E-07 11296   0.398E-03    0.643E-04
DAV:  11    -0.382439560456E+02   -0.20847E-07   -0.27229E-08  8036   0.157E-03    0.193E-04
DAV:  12    -0.382439560572E+02   -0.11692E-07   -0.81797E-09  6108   0.708E-04    0.599E-05
DAV:  13    -0.382439560585E+02   -0.12919E-08   -0.14495E-09  5944   0.382E-04
  26 F= -.38243956E+02 E0= -.38243017E+02  d E =-.276337E-02
 ZBRENT: can't locate minimum, use default step
 trial-energy change:   -0.002763  1 .order   -0.002761   -0.002791   -0.002730
 step:   0.2984(harm=  3.4141)  dis= 0.02546  next Energy=   -38.305066 (dE=-0.639E-01)
 bond charge predicted
       N       E                     dE             d eps       ncg     rms          rms(c)
DAV:   1    -0.382607119604E+02   -0.16756E-01   -0.17062E+01  9964   0.250E+01    0.188E+00
DAV:   2    -0.382637727289E+02   -0.30608E-02   -0.73070E-01 10852   0.930E+00    0.860E-01
DAV:   3    -0.382557502903E+02    0.80224E-02   -0.52270E-02 13212   0.285E+00    0.453E-01
DAV:   4    -0.382516648114E+02    0.40855E-02   -0.10646E-02 13080   0.142E+00    0.130E-01
DAV:   5    -0.382516615059E+02    0.33055E-05   -0.39644E-03 10760   0.558E-01    0.504E-02
DAV:   6    -0.382516899849E+02   -0.28479E-04   -0.58762E-04 12184   0.331E-01    0.328E-02
DAV:   7    -0.382516880531E+02    0.19318E-05   -0.74792E-05 11780   0.166E-01    0.192E-02
DAV:   8    -0.382516891203E+02   -0.10671E-05   -0.26014E-05 15596   0.630E-02    0.593E-03
DAV:   9    -0.382516899302E+02   -0.80991E-06   -0.72029E-06 11072   0.258E-02    0.292E-03
DAV:  10    -0.382516901560E+02   -0.22583E-06   -0.10732E-06 11528   0.946E-03    0.169E-03
DAV:  11    -0.382516902444E+02   -0.88402E-07   -0.23968E-07 13500   0.566E-03    0.573E-04
DAV:  12    -0.382516902637E+02   -0.19289E-07   -0.64008E-08 10756   0.176E-03    0.232E-04
DAV:  13    -0.382516902674E+02   -0.37185E-08   -0.98091E-09  6176   0.734E-04
  27 F= -.38251690E+02 E0= -.38250632E+02  d E =-.104976E-01
 curvature:  -9.14 expect dE=-0.333E+00 dE for cont linesearch -0.616E-02
 ZBRENT: increasing intervall
 opt :   0.7459  next Energy=   -38.264219 (dE=-0.230E-01)
 bond charge predicted
       N       E                     dE             d eps       ncg     rms          rms(c)
DAV:   1    -0.382600904249E+02   -0.84002E-02   -0.68570E+01  9956   0.516E+01    0.375E+00
DAV:   2    -0.383086667172E+02   -0.48576E-01   -0.31395E+00 10768   0.198E+01    0.176E+00
DAV:   3    -0.382786159677E+02    0.30051E-01   -0.22759E-01 13408   0.607E+00    0.910E-01
DAV:   4    -0.382626064161E+02    0.16010E-01   -0.45656E-02 13140   0.273E+00    0.280E-01
DAV:   5    -0.382622680412E+02    0.33837E-03   -0.14955E-02 10772   0.109E+00    0.106E-01
DAV:   6    -0.382623845907E+02   -0.11655E-03   -0.24609E-03 11868   0.706E-01    0.612E-02
DAV:   7    -0.382623858025E+02   -0.12118E-05   -0.33920E-04 12208   0.322E-01    0.358E-02
DAV:   8    -0.382623883170E+02   -0.25145E-05   -0.94398E-05 14624   0.133E-01    0.992E-03
DAV:   9    -0.382623921955E+02   -0.38786E-05   -0.32094E-05 10736   0.443E-02    0.611E-03
DAV:  10    -0.382623926513E+02   -0.45578E-06   -0.35481E-06 12072   0.191E-02    0.236E-03
DAV:  11    -0.382623928720E+02   -0.22071E-06   -0.68306E-07 11420   0.122E-02    0.785E-04
DAV:  12    -0.382623929243E+02   -0.52314E-07   -0.14419E-07 12236   0.323E-03    0.437E-04
DAV:  13    -0.382623929335E+02   -0.91736E-08   -0.18760E-08  7444   0.175E-03
  28 F= -.38262393E+02 E0= -.38261533E+02  d E =-.212002E-01
 curvature: -18.58 expect dE=-0.925E+00 dE for cont linesearch -0.185E-02
 ZBRENT: increasing intervall
 opt :   1.6411  next Energy=   -38.255703 (dE=-0.145E-01)
 bond charge predicted
       N       E                     dE             d eps       ncg     rms          rms(c)
DAV:   1    -0.378638316104E+02    0.39856E+00   -0.27842E+02 10288   0.111E+02    0.747E+00
DAV:   2    -0.384209617043E+02   -0.55713E+00   -0.14976E+01 10740   0.429E+01    0.385E+00
DAV:   3    -0.383059419380E+02    0.11502E+00   -0.10576E+00 13560   0.133E+01    0.195E+00
DAV:   4    -0.382420508928E+02    0.63891E-01   -0.25702E-01 12388   0.498E+00    0.697E-01
DAV:   5    -0.382368078294E+02    0.52431E-02   -0.59359E-02 13392   0.256E+00    0.308E-01
DAV:   6    -0.382365216619E+02    0.28617E-03   -0.13519E-02 10964   0.164E+00    0.110E-01
DAV:   7    -0.382366689652E+02   -0.14730E-03   -0.25442E-03 12464   0.748E-01    0.790E-02
DAV:   8    -0.382366581146E+02    0.10851E-04   -0.41929E-04 12648   0.321E-01    0.292E-02
DAV:   9    -0.382366801453E+02   -0.22031E-04   -0.20066E-04 14004   0.125E-01    0.147E-02
DAV:  10    -0.382366796811E+02    0.46416E-06   -0.28389E-05 12580   0.639E-02    0.608E-03
DAV:  11    -0.382366809114E+02   -0.12303E-05   -0.50709E-06 10888   0.218E-02    0.265E-03
DAV:  12    -0.382366811942E+02   -0.28281E-06   -0.10753E-06 12612   0.113E-02    0.127E-03
DAV:  13    -0.382366812422E+02   -0.48027E-07   -0.18636E-07 12192   0.814E-03    0.531E-04
DAV:  14    -0.382366812683E+02   -0.26006E-07   -0.55414E-08 10860   0.183E-03    0.228E-04
DAV:  15    -0.382366812718E+02   -0.35484E-08   -0.45704E-09  6172   0.662E-04
  29 F= -.38236681E+02 E0= -.38236534E+02  d E =0.451141E-02
 curvature:  67.18 expect dE= 0.805E+01 dE for cont linesearch  0.293E+00
 ZBRENT: bracketing found
 ZBRENT: interpolating
 opt :   0.8634  next Energy=   -38.263122 (dE=-0.219E-01)
 bond charge predicted
       N       E                     dE             d eps       ncg     rms          rms(c)
DAV:   1    -0.383290751074E+02   -0.92394E-01   -0.19833E+02  9948   0.788E+01    0.599E+00
DAV:   2    -0.384186848262E+02   -0.89610E-01   -0.83009E+00 10888   0.219E+01    0.293E+00
DAV:   3    -0.383135495805E+02    0.10514E+00   -0.49210E-01 13420   0.659E+00    0.169E+00
DAV:   4    -0.382653135715E+02    0.48236E-01   -0.20326E-01 14812   0.545E+00    0.618E-01
DAV:   5    -0.382631828671E+02    0.21307E-02   -0.80352E-02 12088   0.321E+00    0.307E-01
DAV:   6    -0.382634889016E+02   -0.30603E-03   -0.16239E-02 11212   0.879E-01    0.143E-01
DAV:   7    -0.382633892342E+02    0.99667E-04   -0.13969E-03 12780   0.447E-01    0.910E-02
DAV:   8    -0.382633809592E+02    0.82750E-05   -0.38096E-04 10988   0.216E-01    0.350E-02
DAV:   9    -0.382633859668E+02   -0.50076E-05   -0.10871E-04 11660   0.971E-02    0.152E-02
DAV:  10    -0.382633857969E+02    0.16990E-06   -0.21046E-05 11668   0.675E-02    0.979E-03
DAV:  11    -0.382633857255E+02    0.71456E-07   -0.47544E-06 13752   0.250E-02    0.486E-03
DAV:  12    -0.382633856860E+02    0.39491E-07   -0.11341E-06 13528   0.151E-02    0.216E-03
DAV:  13    -0.382633856366E+02    0.49411E-07   -0.29796E-07 13356   0.654E-03    0.943E-04
DAV:  14    -0.382633856278E+02    0.87484E-08   -0.11485E-07 11800   0.272E-03    0.331E-04
DAV:  15    -0.382633856227E+02    0.51145E-08   -0.11088E-08  6176   0.111E-03
  30 F= -.38263386E+02 E0= -.38262661E+02  d E =-.221929E-01
 curvature:  -0.17 expect dE=-0.926E-02 dE for cont linesearch -0.189E-05
 trial: gam= 0.56689 g(F)=  0.442E-01 g(S)=  0.112E-01 ort = 0.419E-02 (trialstep = 0.232E+00)
 search vector abs. value=  0.557E+00
 bond charge predicted
       N       E                     dE             d eps       ncg     rms          rms(c)
DAV:   1    -0.382806797971E+02   -0.17294E-01   -0.64965E+00  9940   0.152E+01    0.116E+00
DAV:   2    -0.382806791691E+02    0.62800E-06   -0.26522E-01 10892   0.555E+00    0.581E-01
DAV:   3    -0.382772865254E+02    0.33926E-02   -0.19593E-02 13184   0.182E+00    0.296E-01
DAV:   4    -0.382756382855E+02    0.16482E-02   -0.43181E-03 13024   0.961E-01    0.796E-02
DAV:   5    -0.382756755838E+02   -0.37298E-04   -0.16236E-03 10716   0.394E-01    0.313E-02
DAV:   6    -0.382756864144E+02   -0.10831E-04   -0.21658E-04 12240   0.193E-01    0.216E-02
DAV:   7    -0.382756856388E+02    0.77562E-06   -0.29382E-05 11816   0.105E-01    0.117E-02
DAV:   8    -0.382756865119E+02   -0.87312E-06   -0.10825E-05 15728   0.381E-02    0.359E-03
DAV:   9    -0.382756868091E+02   -0.29715E-06   -0.29840E-06 11296   0.182E-02    0.200E-03
DAV:  10    -0.382756869486E+02   -0.13951E-06   -0.47728E-07 12292   0.890E-03    0.988E-04
DAV:  11    -0.382756869744E+02   -0.25817E-07   -0.11819E-07 12712   0.418E-03    0.276E-04
DAV:  12    -0.382756869828E+02   -0.83810E-08   -0.16402E-08  7140   0.146E-03
  31 F= -.38275687E+02 E0= -.38275102E+02  d E =-.123014E-01
 ZBRENT: can't locate minimum, use default step
 trial-energy change:   -0.012301  1 .order   -0.012292   -0.013420   -0.011164
 step:   0.9294(harm=  1.3821)  dis= 0.04558  next Energy=   -38.303297 (dE=-0.399E-01)
 bond charge predicted
       N       E                     dE             d eps       ncg     rms          rms(c)
DAV:   1    -0.383070804020E+02   -0.31393E-01   -0.58701E+01  9920   0.471E+01    0.345E+00
DAV:   2    -0.383414089954E+02   -0.34329E-01   -0.25928E+00 10880   0.179E+01    0.179E+00
DAV:   3    -0.383124869899E+02    0.28922E-01   -0.19171E-01 13344   0.568E+00    0.896E-01
DAV:   4    -0.382978934618E+02    0.14594E-01   -0.40821E-02 13184   0.259E+00    0.260E-01
DAV:   5    -0.382979326131E+02   -0.39151E-04   -0.13804E-02 10712   0.983E-01    0.976E-02
DAV:   6    -0.382980084249E+02   -0.75812E-04   -0.17968E-03 11924   0.626E-01    0.589E-02
DAV:   7    -0.382980079604E+02    0.46456E-06   -0.26395E-04 11980   0.295E-01    0.321E-02
DAV:   8    -0.382980119346E+02   -0.39742E-05   -0.78795E-05 15184   0.119E-01    0.844E-03
DAV:   9    -0.382980148499E+02   -0.29153E-05   -0.26011E-05 10736   0.425E-02    0.599E-03
DAV:  10    -0.382980153486E+02   -0.49873E-06   -0.31182E-06 12308   0.219E-02    0.194E-03
DAV:  11    -0.382980154953E+02   -0.14672E-06   -0.78032E-07 11292   0.131E-02    0.693E-04
DAV:  12    -0.382980155278E+02   -0.32522E-07   -0.12671E-07 12504   0.332E-03    0.331E-04
DAV:  13    -0.382980155357E+02   -0.78298E-08   -0.17716E-08  7424   0.167E-03
  32 F= -.38298016E+02 E0= -.38297743E+02  d E =-.346299E-01
 curvature:  -5.63 expect dE=-0.200E+00 dE for cont linesearch -0.224E-02
 ZBRENT: extrapolating
 opt :   1.2419  next Energy=   -38.300338 (dE=-0.370E-01)
 bond charge predicted
       N       E                     dE             d eps       ncg     rms          rms(c)
DAV:   1    -0.383055136087E+02   -0.74981E-02   -0.11643E+01  9916   0.204E+01    0.151E+00
DAV:   2    -0.383084698085E+02   -0.29562E-02   -0.47111E-01 10852   0.748E+00    0.775E-01
DAV:   3    -0.383028462564E+02    0.56236E-02   -0.35286E-02 13132   0.239E+00    0.393E-01
DAV:   4    -0.383000260551E+02    0.28202E-02   -0.75051E-03 13164   0.123E+00    0.106E-01
DAV:   5    -0.383000893590E+02   -0.63304E-04   -0.27959E-03 10696   0.475E-01    0.411E-02
DAV:   6    -0.383001043403E+02   -0.14981E-04   -0.33127E-04 12416   0.245E-01    0.269E-02
DAV:   7    -0.383001033354E+02    0.10048E-05   -0.44231E-05 11828   0.135E-01    0.149E-02
DAV:   8    -0.383001048331E+02   -0.14977E-05   -0.17270E-05 15352   0.480E-02    0.416E-03
DAV:   9    -0.383001052419E+02   -0.40874E-06   -0.44481E-06 11176   0.236E-02    0.246E-03
DAV:  10    -0.383001054368E+02   -0.19493E-06   -0.69346E-07 11856   0.123E-02    0.106E-03
DAV:  11    -0.383001054686E+02   -0.31774E-07   -0.18984E-07 12380   0.630E-03    0.306E-04
DAV:  12    -0.383001054766E+02   -0.79763E-08   -0.31286E-08  9292   0.165E-03
  33 F= -.38300105E+02 E0= -.38299904E+02  d E =-.367199E-01
 curvature:  -5.85 expect dE=-0.247E+00 dE for cont linesearch -0.321E-04
 trial: gam= 0.34610 g(F)=  0.375E-01 g(S)=  0.465E-02 ort =-0.175E-02 (trialstep = 0.434E+00)
 search vector abs. value=  0.108E+00
 bond charge predicted
       N       E                     dE             d eps       ncg     rms          rms(c)
DAV:   1    -0.383113819852E+02   -0.11277E-01   -0.41950E+00  9864   0.113E+01    0.679E-01
DAV:   2    -0.383183726075E+02   -0.69906E-02   -0.13043E-01 11136   0.279E+00    0.390E-01
DAV:   3    -0.383163335972E+02    0.20390E-02   -0.70307E-03 13140   0.100E+00    0.185E-01
DAV:   4    -0.383158274217E+02    0.50618E-03   -0.19345E-03 11796   0.731E-01    0.420E-02
DAV:   5    -0.383158702107E+02   -0.42789E-04   -0.66669E-04 10992   0.330E-01    0.253E-02
DAV:   6    -0.383158761770E+02   -0.59662E-05   -0.10885E-04 12472   0.147E-01    0.177E-02
DAV:   7    -0.383158765199E+02   -0.34298E-06   -0.20351E-05 13128   0.821E-02    0.876E-03
DAV:   8    -0.383158770261E+02   -0.50616E-06   -0.68555E-06 13556   0.343E-02    0.303E-03
DAV:   9    -0.383158770813E+02   -0.55167E-07   -0.14537E-06 11340   0.125E-02    0.158E-03
DAV:  10    -0.383158771110E+02   -0.29690E-07   -0.29564E-07 12680   0.559E-03    0.481E-04
DAV:  11    -0.383158771226E+02   -0.11638E-07   -0.39671E-08  9696   0.281E-03    0.212E-04
DAV:  12    -0.383158771244E+02   -0.18326E-08   -0.87779E-09  6108   0.958E-04
  34 F= -.38315877E+02 E0= -.38315703E+02  d E =-.157716E-01
 trial-energy change:   -0.015772  1 .order   -0.015744   -0.018038   -0.013450
 step:   1.7073(harm=  1.7073)  dis= 0.04243  next Energy=   -38.335563 (dE=-0.355E-01)
 bond charge predicted
       N       E                     dE             d eps       ncg     rms          rms(c)
DAV:   1    -0.382884223798E+02    0.27455E-01   -0.35989E+01  9868   0.333E+01    0.203E+00
DAV:   2    -0.383556620446E+02   -0.67240E-01   -0.11859E+00 11216   0.881E+00    0.117E+00
DAV:   3    -0.383394184890E+02    0.16244E-01   -0.73146E-02 13008   0.379E+00    0.608E-01
DAV:   4    -0.383341320334E+02    0.52865E-02   -0.20050E-02 11896   0.208E+00    0.148E-01
DAV:   5    -0.383344533814E+02   -0.32135E-03   -0.66446E-03 11396   0.921E-01    0.771E-02
DAV:   6    -0.383345074921E+02   -0.54111E-04   -0.98145E-04 11528   0.523E-01    0.506E-02
DAV:   7    -0.383345127616E+02   -0.52695E-05   -0.17478E-04 13052   0.241E-01    0.295E-02
DAV:   8    -0.383345181348E+02   -0.53732E-05   -0.66185E-05 14512   0.102E-01    0.633E-03
DAV:   9    -0.383345191449E+02   -0.10101E-05   -0.14304E-05 10768   0.328E-02    0.451E-03
DAV:  10    -0.383345192566E+02   -0.11170E-06   -0.21014E-06 12380   0.162E-02    0.137E-03
DAV:  11    -0.383345193436E+02   -0.86982E-07   -0.47179E-07 11448   0.124E-02    0.417E-04
DAV:  12    -0.383345193558E+02   -0.12231E-07   -0.83885E-08 12224   0.328E-03    0.302E-04
DAV:  13    -0.383345193627E+02   -0.68458E-08   -0.11763E-08  6664   0.134E-03
  35 F= -.38334519E+02 E0= -.38334373E+02  d E =-.344139E-01
 curvature:  -2.21 expect dE=-0.726E-01 dE for cont linesearch -0.102E-03
 trial: gam= 0.74888 g(F)=  0.227E-01 g(S)=  0.102E-01 ort =-0.223E-02 (trialstep = 0.689E+00)
 search vector abs. value=  0.899E-01
 bond charge predicted
       N       E                     dE             d eps       ncg     rms          rms(c)
DAV:   1    -0.383574868435E+02   -0.22967E-01   -0.78090E+00  9900   0.159E+01    0.130E+00
DAV:   2    -0.383597957204E+02   -0.23089E-02   -0.25513E-01 12104   0.452E+00    0.770E-01
DAV:   3    -0.383499732313E+02    0.98225E-02   -0.21575E-02 13032   0.173E+00    0.271E-01
DAV:   4    -0.383491529130E+02    0.82032E-03   -0.58860E-03 12524   0.101E+00    0.687E-02
DAV:   5    -0.383492645401E+02   -0.11163E-03   -0.16868E-03 11056   0.488E-01    0.468E-02
DAV:   6    -0.383492650439E+02   -0.50380E-06   -0.19255E-04 12552   0.271E-01    0.265E-02
DAV:   7    -0.383492679315E+02   -0.28876E-05   -0.62199E-05 12440   0.840E-02    0.142E-02
DAV:   8    -0.383492680485E+02   -0.11702E-06   -0.17933E-05 13320   0.592E-02    0.447E-03
DAV:   9    -0.383492684523E+02   -0.40377E-06   -0.42869E-06 11336   0.308E-02    0.258E-03
DAV:  10    -0.383492684557E+02   -0.33974E-08   -0.10533E-06 14084   0.112E-02    0.102E-03
DAV:  11    -0.383492684588E+02   -0.30454E-08   -0.18923E-07 11156   0.480E-03    0.501E-04
DAV:  12    -0.383492684573E+02    0.14879E-08   -0.50724E-08 11064   0.274E-03
  36 F= -.38349268E+02 E0= -.38349061E+02  d E =-.147491E-01
 trial-energy change:   -0.014749  1 .order   -0.014748   -0.021459   -0.008037
 step:   1.1014(harm=  1.1014)  dis= 0.01792  next Energy=   -38.351674 (dE=-0.172E-01)
 bond charge predicted
       N       E                     dE             d eps       ncg     rms          rms(c)
DAV:   1    -0.383545506044E+02   -0.52821E-02   -0.27973E+00  9912   0.951E+00    0.779E-01
DAV:   2    -0.383553891337E+02   -0.83853E-03   -0.91732E-02 12040   0.275E+00    0.463E-01
DAV:   3    -0.383519216642E+02    0.34675E-02   -0.78978E-03 12944   0.109E+00    0.169E-01
DAV:   4    -0.383515939012E+02    0.32776E-03   -0.21696E-03 12104   0.638E-01    0.413E-02
DAV:   5    -0.383516373206E+02   -0.43419E-04   -0.64787E-04 11356   0.316E-01    0.285E-02
DAV:   6    -0.383516381137E+02   -0.79308E-06   -0.76483E-05 12268   0.160E-01    0.163E-02
DAV:   7    -0.383516391865E+02   -0.10728E-05   -0.24877E-05 13100   0.569E-02    0.901E-03
DAV:   8    -0.383516391324E+02    0.54106E-07   -0.71825E-06 13316   0.409E-02    0.278E-03
DAV:   9    -0.383516393264E+02   -0.19404E-06   -0.18852E-06 11540   0.165E-02    0.169E-03
DAV:  10    -0.383516393117E+02    0.14690E-07   -0.35678E-07 13436   0.774E-03    0.651E-04
DAV:  11    -0.383516393097E+02    0.19845E-08   -0.88655E-08 10820   0.399E-03
  37 F= -.38351639E+02 E0= -.38351386E+02  d E =-.171199E-01
 curvature:  -1.59 expect dE=-0.337E-01 dE for cont linesearch -0.201E-06
 trial: gam= 0.56510 g(F)=  0.137E-01 g(S)=  0.747E-02 ort =-0.107E-03 (trialstep = 0.771E+00)
 search vector abs. value=  0.498E-01
 bond charge predicted
       N       E                     dE             d eps       ncg     rms          rms(c)
DAV:   1    -0.383897025190E+02   -0.38063E-01   -0.49292E+00 10252   0.149E+01    0.152E+00
DAV:   2    -0.383729746808E+02    0.16728E-01   -0.30397E-01 11688   0.677E+00    0.802E-01
DAV:   3    -0.383664874728E+02    0.64872E-02   -0.29265E-02 12860   0.207E+00    0.395E-01
DAV:   4    -0.383637370142E+02    0.27505E-02   -0.60650E-03 12900   0.113E+00    0.111E-01
DAV:   5    -0.383637584426E+02   -0.21428E-04   -0.25381E-03 10744   0.409E-01    0.397E-02
DAV:   6    -0.383637654270E+02   -0.69843E-05   -0.31182E-04 13324   0.144E-01    0.235E-02
DAV:   7    -0.383637637463E+02    0.16807E-05   -0.34387E-05 11996   0.702E-02    0.135E-02
DAV:   8    -0.383637646288E+02   -0.88253E-06   -0.14771E-05 14452   0.408E-02    0.443E-03
DAV:   9    -0.383637647633E+02   -0.13450E-06   -0.24569E-06 12404   0.237E-02    0.217E-03
DAV:  10    -0.383637647904E+02   -0.27061E-07   -0.96620E-07 13592   0.874E-03    0.130E-03
DAV:  11    -0.383637648126E+02   -0.22219E-07   -0.16433E-07 12484   0.437E-03    0.772E-04
DAV:  12    -0.383637648292E+02   -0.16636E-07   -0.54982E-08 12256   0.269E-03    0.257E-04
DAV:  13    -0.383637648363E+02   -0.70381E-08   -0.14342E-08  6196   0.113E-03
  38 F= -.38363765E+02 E0= -.38363518E+02  d E =-.121255E-01
 trial-energy change:   -0.012126  1 .order   -0.012137   -0.016316   -0.007959
 step:   1.5060(harm=  1.5060)  dis= 0.02503  next Energy=   -38.367566 (dE=-0.159E-01)
 bond charge predicted
       N       E                     dE             d eps       ncg     rms          rms(c)
DAV:   1    -0.383905271123E+02   -0.26762E-01   -0.44535E+00 10244   0.141E+01    0.144E+00
DAV:   2    -0.383758541057E+02    0.14673E-01   -0.27176E-01 11728   0.637E+00    0.759E-01
DAV:   3    -0.383700267812E+02    0.58273E-02   -0.25988E-02 13048   0.193E+00    0.374E-01
DAV:   4    -0.383675612988E+02    0.24655E-02   -0.53688E-03 13168   0.104E+00    0.104E-01
DAV:   5    -0.383675777752E+02   -0.16476E-04   -0.22097E-03 10732   0.375E-01    0.375E-02
DAV:   6    -0.383675837822E+02   -0.60070E-05   -0.27029E-04 13352   0.128E-01    0.221E-02
DAV:   7    -0.383675821959E+02    0.15863E-05   -0.29793E-05 11860   0.540E-02    0.126E-02
DAV:   8    -0.383675830658E+02   -0.86994E-06   -0.12456E-05 14000   0.308E-02    0.382E-03
DAV:   9    -0.383675831440E+02   -0.78212E-07   -0.21191E-06 11816   0.155E-02    0.201E-03
DAV:  10    -0.383675831641E+02   -0.20064E-07   -0.83315E-07 14244   0.816E-03    0.131E-03
DAV:  11    -0.383675831823E+02   -0.18182E-07   -0.12728E-07 12756   0.522E-03    0.673E-04
DAV:  12    -0.383675831965E+02   -0.14278E-07   -0.50571E-08 11700   0.242E-03    0.221E-04
DAV:  13    -0.383675832020E+02   -0.54938E-08   -0.11492E-08  6172   0.926E-04
  39 F= -.38367583E+02 E0= -.38367340E+02  d E =-.159439E-01
 curvature:  -1.77 expect dE=-0.216E-01 dE for cont linesearch -0.982E-07
 trial: gam= 0.59838 g(F)=  0.793E-02 g(S)=  0.423E-02 ort = 0.525E-04 (trialstep = 0.918E+00)
 search vector abs. value=  0.300E-01
 bond charge predicted
       N       E                     dE             d eps       ncg     rms          rms(c)
DAV:   1    -0.383901663259E+02   -0.22583E-01   -0.40246E+00 10220   0.124E+01    0.121E+00
DAV:   2    -0.383827379951E+02    0.74283E-02   -0.16840E-01 12096   0.525E+00    0.698E-01
DAV:   3    -0.383762737929E+02    0.64642E-02   -0.19671E-02 13852   0.180E+00    0.306E-01
DAV:   4    -0.383747081976E+02    0.15656E-02   -0.49765E-03 12164   0.813E-01    0.482E-02
DAV:   5    -0.383748209051E+02   -0.11271E-03   -0.13854E-03 10992   0.319E-01    0.297E-02
DAV:   6    -0.383748222640E+02   -0.13589E-05   -0.79152E-05 12868   0.125E-01    0.181E-02
DAV:   7    -0.383748221812E+02    0.82783E-07   -0.19188E-05 12520   0.884E-02    0.702E-03
DAV:   8    -0.383748226619E+02   -0.48070E-06   -0.61162E-06 11532   0.287E-02    0.259E-03
DAV:   9    -0.383748226956E+02   -0.33703E-07   -0.14662E-06 13076   0.131E-02    0.196E-03
DAV:  10    -0.383748226501E+02    0.45495E-07   -0.32424E-07 11172   0.647E-03    0.763E-04
DAV:  11    -0.383748226240E+02    0.26159E-07   -0.10353E-07 12256   0.261E-03    0.377E-04
DAV:  12    -0.383748226207E+02    0.32310E-08   -0.10715E-08  6180   0.164E-03
  40 F= -.38374823E+02 E0= -.38374467E+02  d E =-.723942E-02
 trial-energy change:   -0.007239  1 .order   -0.007229   -0.011195   -0.003263
 step:   1.2961(harm=  1.2961)  dis= 0.01546  next Energy=   -38.375483 (dE=-0.790E-02)
 bond charge predicted
       N       E                     dE             d eps       ncg     rms          rms(c)
DAV:   1    -0.383780435799E+02   -0.32210E-02   -0.68134E-01 10248   0.514E+00    0.499E-01
DAV:   2    -0.383768310751E+02    0.12125E-02   -0.29598E-02 12336   0.221E+00    0.288E-01
DAV:   3    -0.383757429706E+02    0.10881E-02   -0.32562E-03 13776   0.740E-01    0.127E-01
DAV:   4    -0.383754693144E+02    0.27366E-03   -0.84713E-04 12492   0.337E-01    0.194E-02
DAV:   5    -0.383754887870E+02   -0.19473E-04   -0.23654E-04 10920   0.131E-01    0.120E-02
DAV:   6    -0.383754889007E+02   -0.11371E-06   -0.13044E-05 12888   0.473E-02    0.740E-03
DAV:   7    -0.383754887825E+02    0.11828E-06   -0.31334E-06 12592   0.359E-02    0.290E-03
DAV:   8    -0.383754887944E+02   -0.11911E-07   -0.92831E-07 11600   0.129E-02    0.110E-03
DAV:   9    -0.383754887917E+02    0.26130E-08   -0.26447E-07 12920   0.506E-03    0.834E-04
DAV:  10    -0.383754887684E+02    0.23381E-07   -0.51979E-08 10612   0.265E-03    0.321E-04
DAV:  11    -0.383754887557E+02    0.12707E-07   -0.15032E-08  6760   0.108E-03    0.156E-04
DAV:  12    -0.383754887533E+02    0.23761E-08   -0.37411E-09  6084   0.857E-04
  41 F= -.38375489E+02 E0= -.38375077E+02  d E =-.790555E-02
 curvature:  -1.60 expect dE=-0.813E-02 dE for cont linesearch -0.168E-06
 trial: gam= 0.41584 g(F)=  0.456E-02 g(S)=  0.525E-03 ort =-0.562E-04 (trialstep = 0.994E+00)
 search vector abs. value=  0.102E-01
 bond charge predicted
       N       E                     dE             d eps       ncg     rms          rms(c)
DAV:   1    -0.383787099115E+02   -0.32212E-02   -0.18613E+00  9900   0.751E+00    0.479E-01
DAV:   2    -0.383800984400E+02   -0.13885E-02   -0.45088E-02 12240   0.203E+00    0.286E-01
DAV:   3    -0.383789181124E+02    0.11803E-02   -0.44936E-03 12216   0.863E-01    0.117E-01
DAV:   4    -0.383788000243E+02    0.11809E-03   -0.98513E-04 11768   0.636E-01    0.281E-02
DAV:   5    -0.383788254013E+02   -0.25377E-04   -0.32797E-04 11240   0.208E-01    0.199E-02
DAV:   6    -0.383788265908E+02   -0.11895E-05   -0.42359E-05 12304   0.943E-02    0.105E-02
DAV:   7    -0.383788267844E+02   -0.19365E-06   -0.10129E-05 14704   0.631E-02    0.518E-03
DAV:   8    -0.383788269878E+02   -0.20342E-06   -0.31119E-06 12772   0.265E-02    0.147E-03
DAV:   9    -0.383788270371E+02   -0.49287E-07   -0.81040E-07 11536   0.634E-03    0.105E-03
DAV:  10    -0.383788270334E+02    0.37421E-08   -0.75277E-08 12296   0.400E-03
  42 F= -.38378827E+02 E0= -.38378390E+02  d E =-.333828E-02
 trial-energy change:   -0.003338  1 .order   -0.003331   -0.005035   -0.001627
 step:   1.4685(harm=  1.4685)  dis= 0.01075  next Energy=   -38.379209 (dE=-0.372E-02)
 bond charge predicted
       N       E                     dE             d eps       ncg     rms          rms(c)
DAV:   1    -0.383791951508E+02   -0.36811E-03   -0.42419E-01  9908   0.358E+00    0.228E-01
DAV:   2    -0.383795070838E+02   -0.31193E-03   -0.10199E-02 12192   0.956E-01    0.137E-01
DAV:   3    -0.383792385484E+02    0.26854E-03   -0.10131E-03 12268   0.412E-01    0.556E-02
DAV:   4    -0.383792123684E+02    0.26180E-04   -0.22476E-04 11836   0.309E-01    0.133E-02
DAV:   5    -0.383792182916E+02   -0.59232E-05   -0.74546E-05 11168   0.987E-02    0.940E-03
DAV:   6    -0.383792186184E+02   -0.32679E-06   -0.99363E-06 12324   0.440E-02    0.496E-03
DAV:   7    -0.383792186796E+02   -0.61197E-07   -0.23121E-06 14680   0.303E-02    0.238E-03
DAV:   8    -0.383792187373E+02   -0.57757E-07   -0.68793E-07 12712   0.122E-02    0.698E-04
DAV:   9    -0.383792187461E+02   -0.88298E-08   -0.17891E-07 11248   0.306E-03    0.489E-04
DAV:  10    -0.383792187456E+02    0.57662E-09   -0.13271E-08  6728   0.192E-03
  43 F= -.38379219E+02 E0= -.38378771E+02  d E =-.372999E-02
 curvature:  -1.48 expect dE=-0.440E-02 dE for cont linesearch -0.261E-07
 trial: gam= 0.57480 g(F)=  0.253E-02 g(S)=  0.431E-03 ort =-0.134E-04 (trialstep = 0.109E+01)
 search vector abs. value=  0.633E-02
 bond charge predicted
       N       E                     dE             d eps       ncg     rms          rms(c)
DAV:   1    -0.383817644969E+02   -0.25458E-02   -0.13669E+00  9984   0.655E+00    0.468E-01
DAV:   2    -0.383821344763E+02   -0.36998E-03   -0.39910E-02 12920   0.197E+00    0.269E-01
DAV:   3    -0.383811804618E+02    0.95401E-03   -0.27864E-03 11864   0.731E-01    0.123E-01
DAV:   4    -0.383809429018E+02    0.23756E-03   -0.82370E-04 13464   0.424E-01    0.221E-02
DAV:   5    -0.383809609531E+02   -0.18051E-04   -0.25485E-04 10660   0.173E-01    0.141E-02
DAV:   6    -0.383809613776E+02   -0.42447E-06   -0.25395E-05 12032   0.766E-02    0.911E-03
DAV:   7    -0.383809613790E+02   -0.14315E-08   -0.62800E-06 13756   0.426E-02    0.334E-03
DAV:   8    -0.383809615529E+02   -0.17392E-06   -0.19304E-06 12900   0.164E-02    0.141E-03
DAV:   9    -0.383809615750E+02   -0.22057E-07   -0.42513E-07 10756   0.527E-03    0.101E-03
DAV:  10    -0.383809615965E+02   -0.21509E-07   -0.98207E-08 13596   0.286E-03    0.392E-04
DAV:  11    -0.383809615999E+02   -0.34347E-08   -0.16310E-08  6368   0.210E-03
  44 F= -.38380962E+02 E0= -.38380433E+02  d E =-.174285E-02
 trial-energy change:   -0.001743  1 .order   -0.001743   -0.003218   -0.000267
 step:   1.1875(harm=  1.1875)  dis= 0.00835  next Energy=   -38.380974 (dE=-0.176E-02)
 bond charge predicted
       N       E                     dE             d eps       ncg     rms          rms(c)
DAV:   1    -0.383809785451E+02   -0.16949E-04   -0.11222E-02 10028   0.590E-01    0.422E-02
DAV:   2    -0.383809804760E+02   -0.19309E-05   -0.31272E-04 12680   0.174E-01    0.243E-02
DAV:   3    -0.383809724211E+02    0.80548E-05   -0.23261E-05 11868   0.679E-02    0.111E-02
DAV:   4    -0.383809704856E+02    0.19356E-05   -0.68963E-06 13552   0.392E-02    0.199E-03
DAV:   5    -0.383809706073E+02   -0.12167E-06   -0.20372E-06 10600   0.161E-02    0.128E-03
DAV:   6    -0.383809706052E+02    0.20682E-08   -0.20822E-07 12040   0.677E-03    0.829E-04
DAV:   7    -0.383809706056E+02   -0.42473E-09   -0.48719E-08 10548   0.384E-03
  45 F= -.38380971E+02 E0= -.38380434E+02  d E =-.175186E-02
 curvature:  -1.27 expect dE=-0.302E-02 dE for cont linesearch -0.119E-10
 trial: gam= 0.79460 g(F)=  0.219E-02 g(S)=  0.186E-03 ort = 0.244E-06 (trialstep = 0.110E+01)
 search vector abs. value=  0.637E-02
 bond charge predicted
       N       E                     dE             d eps       ncg     rms          rms(c)
DAV:   1    -0.383846161283E+02   -0.36455E-02   -0.15414E+00 10380   0.714E+00    0.514E-01
DAV:   2    -0.383838944468E+02    0.72168E-03   -0.48338E-02 11928   0.261E+00    0.259E-01
DAV:   3    -0.383832481042E+02    0.64634E-03   -0.35213E-03 13020   0.782E-01    0.127E-01
DAV:   4    -0.383829414227E+02    0.30668E-03   -0.70014E-04 14044   0.365E-01    0.300E-02
DAV:   5    -0.383829479398E+02   -0.65170E-05   -0.24570E-04 10752   0.127E-01    0.101E-02
DAV:   6    -0.383829485685E+02   -0.62876E-06   -0.14987E-05 13424   0.376E-02    0.640E-03
DAV:   7    -0.383829486843E+02   -0.11579E-06   -0.21554E-06 12564   0.301E-02    0.304E-03
DAV:   8    -0.383829488579E+02   -0.17354E-06   -0.80361E-07 11888   0.128E-02    0.101E-03
DAV:   9    -0.383829489160E+02   -0.58153E-07   -0.23871E-07 12448   0.412E-03    0.565E-04
DAV:  10    -0.383829489288E+02   -0.12821E-07   -0.24041E-08  7600   0.227E-03    0.332E-04
DAV:  11    -0.383829489496E+02   -0.20789E-07   -0.14488E-08  7212   0.148E-03    0.126E-04
DAV:  12    -0.383829489521E+02   -0.24893E-08   -0.42994E-09  6132   0.918E-04
  46 F= -.38382949E+02 E0= -.38382428E+02  d E =-.197835E-02
 trial-energy change:   -0.001978  1 .order   -0.001975   -0.002616   -0.001334
 step:   2.2470(harm=  2.2470)  dis= 0.01570  next Energy=   -38.383640 (dE=-0.267E-02)
 bond charge predicted
       N       E                     dE             d eps       ncg     rms          rms(c)
DAV:   1    -0.383854064802E+02   -0.24575E-02   -0.16684E+00 10360   0.743E+00    0.533E-01
DAV:   2    -0.383846636532E+02    0.74283E-03   -0.52294E-02 11964   0.270E+00    0.268E-01
DAV:   3    -0.383839672552E+02    0.69640E-03   -0.37835E-03 13036   0.806E-01    0.132E-01
DAV:   4    -0.383836369836E+02    0.33027E-03   -0.75012E-04 14052   0.378E-01    0.311E-02
DAV:   5    -0.383836440738E+02   -0.70902E-05   -0.26359E-04 10752   0.131E-01    0.105E-02
DAV:   6    -0.383836447601E+02   -0.68630E-06   -0.16159E-05 13352   0.393E-02    0.665E-03
DAV:   7    -0.383836448825E+02   -0.12241E-06   -0.23338E-06 12572   0.317E-02    0.318E-03
DAV:   8    -0.383836450684E+02   -0.18595E-06   -0.87224E-07 11912   0.133E-02    0.104E-03
DAV:   9    -0.383836451291E+02   -0.60646E-07   -0.25946E-07 12432   0.420E-03    0.586E-04
DAV:  10    -0.383836451423E+02   -0.13171E-07   -0.25941E-08  8176   0.227E-03    0.342E-04
DAV:  11    -0.383836451642E+02   -0.21970E-07   -0.15214E-08  7296   0.152E-03    0.130E-04
DAV:  12    -0.383836451668E+02   -0.25361E-08   -0.44039E-09  6144   0.949E-04
  47 F= -.38383645E+02 E0= -.38383141E+02  d E =-.267456E-02
 curvature:  -3.01 expect dE=-0.990E-02 dE for cont linesearch -0.559E-09
 trial: gam= 1.39176 g(F)=  0.210E-02 g(S)=  0.119E-02 ort =-0.109E-05 (trialstep = 0.543E+00)
 search vector abs. value=  0.156E-01
 bond charge predicted
       N       E                     dE             d eps       ncg     rms          rms(c)
DAV:   1    -0.383854572980E+02   -0.18121E-02   -0.92895E-01 10216   0.494E+00    0.278E-01
DAV:   2    -0.383857026400E+02   -0.24534E-03   -0.14546E-02 12304   0.120E+00    0.168E-01
DAV:   3    -0.383852807776E+02    0.42186E-03   -0.10641E-03 12732   0.468E-01    0.646E-02
DAV:   4    -0.383852270275E+02    0.53750E-04   -0.32801E-04 11476   0.260E-01    0.147E-02
DAV:   5    -0.383852320647E+02   -0.50372E-05   -0.81452E-05 11820   0.119E-01    0.937E-03
DAV:   6    -0.383852324369E+02   -0.37219E-06   -0.11441E-05 11452   0.512E-02    0.513E-03
DAV:   7    -0.383852325675E+02   -0.13056E-06   -0.28422E-06 12428   0.231E-02    0.228E-03
DAV:   8    -0.383852326085E+02   -0.41060E-07   -0.76209E-07 10904   0.108E-02    0.866E-04
DAV:   9    -0.383852326130E+02   -0.44279E-08   -0.19823E-07 13384   0.373E-03    0.611E-04
DAV:  10    -0.383852326043E+02    0.86939E-08   -0.33763E-08  9564   0.318E-03
  48 F= -.38385233E+02 E0= -.38384725E+02  d E =-.158744E-02
 ZBRENT: can't locate minimum, use default step
 trial-energy change:   -0.001587  1 .order   -0.001587   -0.001781   -0.001392
 step:   2.1703(harm=  2.4814)  dis= 0.02625  next Energy=   -38.387719 (dE=-0.407E-02)
 bond charge predicted
       N       E                     dE             d eps       ncg     rms          rms(c)
DAV:   1    -0.383886477479E+02   -0.34151E-02   -0.83913E+00 10208   0.148E+01    0.829E-01
DAV:   2    -0.383919699059E+02   -0.33222E-02   -0.13908E-01 12312   0.345E+00    0.501E-01
DAV:   3    -0.383880645152E+02    0.39054E-02   -0.92557E-03 12976   0.149E+00    0.187E-01
DAV:   4    -0.383876484040E+02    0.41611E-03   -0.30402E-03 11060   0.859E-01    0.428E-02
DAV:   5    -0.383877004414E+02   -0.52037E-04   -0.77212E-04 11884   0.354E-01    0.283E-02
DAV:   6    -0.383877043566E+02   -0.39152E-05   -0.10491E-04 11360   0.159E-01    0.156E-02
DAV:   7    -0.383877059448E+02   -0.15882E-05   -0.27367E-05 13308   0.804E-02    0.666E-03
DAV:   8    -0.383877063204E+02   -0.37560E-06   -0.78343E-06 11196   0.370E-02    0.268E-03
DAV:   9    -0.383877064413E+02   -0.12093E-06   -0.23640E-06 13792   0.106E-02    0.192E-03
DAV:  10    -0.383877064209E+02    0.20456E-07   -0.30214E-07 14052   0.804E-03    0.710E-04
DAV:  11    -0.383877064092E+02    0.11729E-07   -0.87263E-08 10956   0.292E-03    0.280E-04
DAV:  12    -0.383877064059E+02    0.32792E-08   -0.83223E-09  6292   0.970E-04
  49 F= -.38387706E+02 E0= -.38387185E+02  d E =-.406124E-02
 curvature:  -5.75 expect dE=-0.161E-01 dE for cont linesearch -0.705E-04
 trial: gam= 0.71401 g(F)=  0.204E-02 g(S)=  0.756E-03 ort = 0.437E-03 (trialstep = 0.868E+00)
 search vector abs. value=  0.114E-01
 bond charge predicted
       N       E                     dE             d eps       ncg     rms          rms(c)
DAV:   1    -0.383893399971E+02   -0.16336E-02   -0.17828E+00 10240   0.772E+00    0.476E-01
DAV:   2    -0.383900906369E+02   -0.75064E-03   -0.52777E-02 11924   0.263E+00    0.240E-01
DAV:   3    -0.383897564076E+02    0.33423E-03   -0.41110E-03 12800   0.731E-01    0.122E-01
DAV:   4    -0.383895076422E+02    0.24877E-03   -0.65953E-04 13652   0.347E-01    0.324E-02
DAV:   5    -0.383895104399E+02   -0.27977E-05   -0.21891E-04 10788   0.118E-01    0.105E-02
DAV:   6    -0.383895115681E+02   -0.11281E-05   -0.16364E-05 14048   0.329E-02    0.645E-03
DAV:   7    -0.383895117412E+02   -0.17316E-06   -0.19720E-06 11964   0.146E-02    0.368E-03
DAV:   8    -0.383895120278E+02   -0.28657E-06   -0.63585E-07 14804   0.132E-02    0.894E-04
DAV:   9    -0.383895120333E+02   -0.55288E-08   -0.15489E-07 13132   0.571E-03    0.472E-04
DAV:  10    -0.383895120406E+02   -0.72232E-08   -0.51493E-08 10840   0.201E-03
  50 F= -.38389512E+02 E0= -.38389018E+02  d E =-.180563E-02
 trial-energy change:   -0.001806  1 .order   -0.001798   -0.002702   -0.000894
 step:   1.2815(harm=  1.2971)  dis= 0.01100  next Energy=   -38.389726 (dE=-0.202E-02)
 bond charge predicted
       N       E                     dE             d eps       ncg     rms          rms(c)
DAV:   1    -0.383897159291E+02   -0.20390E-03   -0.40327E-01 10232   0.365E+00    0.225E-01
DAV:   2    -0.383898655482E+02   -0.14962E-03   -0.11623E-02 11832   0.123E+00    0.114E-01
DAV:   3    -0.383897883529E+02    0.77195E-04   -0.92693E-04 12772   0.345E-01    0.580E-02
DAV:   4    -0.383897318385E+02    0.56514E-04   -0.14833E-04 13700   0.166E-01    0.151E-02
DAV:   5    -0.383897324814E+02   -0.64294E-06   -0.49723E-05 10780   0.579E-02    0.500E-03
DAV:   6    -0.383897327974E+02   -0.31596E-06   -0.37991E-06 13988   0.157E-02    0.310E-03
DAV:   7    -0.383897328540E+02   -0.56606E-07   -0.42681E-07 11984   0.659E-03    0.176E-03
DAV:   8    -0.383897329637E+02   -0.10968E-06   -0.14058E-07 14008   0.584E-03    0.425E-04
DAV:   9    -0.383897329664E+02   -0.26971E-08   -0.30766E-08  8436   0.270E-03
  51 F= -.38389733E+02 E0= -.38389252E+02  d E =-.202656E-02
 curvature:  -2.37 expect dE=-0.428E-02 dE for cont linesearch -0.255E-06
 trial: gam= 0.75127 g(F)=  0.126E-02 g(S)=  0.543E-03 ort = 0.350E-04 (trialstep = 0.951E+00)
 search vector abs. value=  0.829E-02
 bond charge predicted
       N       E                     dE             d eps       ncg     rms          rms(c)
DAV:   1    -0.383919656757E+02   -0.22327E-02   -0.14739E+00  9964   0.653E+00    0.427E-01
DAV:   2    -0.383918724415E+02    0.93234E-04   -0.25394E-02 11848   0.177E+00    0.247E-01
DAV:   3    -0.383909994527E+02    0.87299E-03   -0.30694E-03 12620   0.837E-01    0.104E-01
DAV:   4    -0.383908760954E+02    0.12336E-03   -0.75850E-04 11688   0.516E-01    0.223E-02
DAV:   5    -0.383908929387E+02   -0.16843E-04   -0.23266E-04 11472   0.172E-01    0.157E-02
DAV:   6    -0.383908938622E+02   -0.92358E-06   -0.33133E-05 12192   0.875E-02    0.833E-03
DAV:   7    -0.383908939727E+02   -0.11047E-06   -0.64229E-06 12632   0.419E-02    0.367E-03
DAV:   8    -0.383908941337E+02   -0.16097E-06   -0.21528E-06 11756   0.145E-02    0.130E-03
DAV:   9    -0.383908941359E+02   -0.21660E-08   -0.27710E-07 12492   0.563E-03    0.863E-04
DAV:  10    -0.383908941218E+02    0.14101E-07   -0.75017E-08 12548   0.612E-03    0.281E-04
DAV:  11    -0.383908941142E+02    0.75111E-08   -0.17963E-08  6828   0.239E-03
  52 F= -.38390894E+02 E0= -.38390381E+02  d E =-.116115E-02
 trial-energy change:   -0.001161  1 .order   -0.001150   -0.001740   -0.000559
 step:   1.3657(harm=  1.4009)  dis= 0.00888  next Energy=   -38.391017 (dE=-0.128E-02)
 bond charge predicted
       N       E                     dE             d eps       ncg     rms          rms(c)
DAV:   1    -0.383912286110E+02   -0.33449E-03   -0.28082E-01  9960   0.286E+00    0.187E-01
DAV:   2    -0.383912086611E+02    0.19950E-04   -0.48847E-03 11840   0.790E-01    0.108E-01
DAV:   3    -0.383910437083E+02    0.16495E-03   -0.59476E-04 12488   0.364E-01    0.460E-02
DAV:   4    -0.383910190937E+02    0.24615E-04   -0.14431E-04 11744   0.222E-01    0.991E-03
DAV:   5    -0.383910222194E+02   -0.31257E-05   -0.44565E-05 11412   0.774E-02    0.681E-03
DAV:   6    -0.383910223678E+02   -0.14839E-06   -0.64917E-06 12256   0.389E-02    0.369E-03
DAV:   7    -0.383910223574E+02    0.10461E-07   -0.12645E-06 12544   0.179E-02    0.164E-03
DAV:   8    -0.383910223689E+02   -0.11550E-07   -0.41746E-07 11984   0.638E-03    0.580E-04
DAV:   9    -0.383910223657E+02    0.32360E-08   -0.50645E-08  9488   0.264E-03
  53 F= -.38391022E+02 E0= -.38390495E+02  d E =-.128940E-02
 curvature:  -3.15 expect dE=-0.404E-02 dE for cont linesearch -0.105E-05
 trial: gam= 0.59212 g(F)=  0.121E-02 g(S)=  0.692E-04 ort = 0.526E-04 (trialstep = 0.103E+01)
 search vector abs. value=  0.425E-02
 bond charge predicted
       N       E                     dE             d eps       ncg     rms          rms(c)
DAV:   1    -0.383923193533E+02   -0.12970E-02   -0.91186E-01 10012   0.520E+00    0.316E-01
DAV:   2    -0.383925210572E+02   -0.20170E-03   -0.16561E-02 11864   0.142E+00    0.184E-01
DAV:   3    -0.383920698750E+02    0.45118E-03   -0.18103E-03 12764   0.627E-01    0.833E-02
DAV:   4    -0.383919813866E+02    0.88488E-04   -0.42881E-04 12364   0.398E-01    0.158E-02
DAV:   5    -0.383919925269E+02   -0.11140E-04   -0.14237E-04 11208   0.137E-01    0.118E-02
DAV:   6    -0.383919934520E+02   -0.92507E-06   -0.19892E-05 12468   0.591E-02    0.641E-03
DAV:   7    -0.383919935086E+02   -0.56678E-07   -0.32308E-06 12024   0.349E-02    0.309E-03
DAV:   8    -0.383919936029E+02   -0.94276E-07   -0.13020E-06 12620   0.112E-02    0.895E-04
DAV:   9    -0.383919936061E+02   -0.31851E-08   -0.15048E-07 12532   0.313E-03    0.542E-04
DAV:  10    -0.383919935986E+02    0.74597E-08   -0.18015E-08  7240   0.279E-03
  54 F= -.38391994E+02 E0= -.38391479E+02  d E =-.971233E-03
 trial-energy change:   -0.000971  1 .order   -0.000972   -0.001356   -0.000588
 step:   1.8254(harm=  1.8254)  dis= 0.00805  next Energy=   -38.392220 (dE=-0.120E-02)
 bond charge predicted
       N       E                     dE             d eps       ncg     rms          rms(c)
DAV:   1    -0.383924069343E+02   -0.41333E-03   -0.53477E-01 10004   0.398E+00    0.243E-01
DAV:   2    -0.383925250050E+02   -0.11807E-03   -0.97734E-03 11840   0.110E+00    0.141E-01
DAV:   3    -0.383922619865E+02    0.26302E-03   -0.10791E-03 12764   0.484E-01    0.641E-02
DAV:   4    -0.383922092909E+02    0.52696E-04   -0.25249E-04 12340   0.306E-01    0.122E-02
DAV:   5    -0.383922159287E+02   -0.66378E-05   -0.84736E-05 11200   0.107E-01    0.901E-03
DAV:   6    -0.383922164585E+02   -0.52983E-06   -0.11776E-05 12484   0.460E-02    0.491E-03
DAV:   7    -0.383922164828E+02   -0.24313E-07   -0.19196E-06 12008   0.267E-02    0.234E-03
DAV:   8    -0.383922165308E+02   -0.47902E-07   -0.76417E-07 12684   0.862E-03    0.687E-04
DAV:   9    -0.383922165313E+02   -0.57435E-09   -0.84870E-08 11644   0.238E-03
  55 F= -.38392217E+02 E0= -.38391713E+02  d E =-.119417E-02
 curvature:  -2.96 expect dE=-0.472E-02 dE for cont linesearch -0.150E-07
 trial: gam= 1.29502 g(F)=  0.114E-02 g(S)=  0.459E-03 ort =-0.465E-05 (trialstep = 0.581E+00)
 search vector abs. value=  0.871E-02
 bond charge predicted
       N       E                     dE             d eps       ncg     rms          rms(c)
DAV:   1    -0.383939386880E+02   -0.17222E-02   -0.57930E-01 10028   0.429E+00    0.324E-01
DAV:   2    -0.383934931757E+02    0.44551E-03   -0.13996E-02 11712   0.133E+00    0.180E-01
DAV:   3    -0.383930870380E+02    0.40614E-03   -0.13035E-03 12648   0.446E-01    0.835E-02
DAV:   4    -0.383929663518E+02    0.12069E-03   -0.33266E-04 12432   0.245E-01    0.162E-02
DAV:   5    -0.383929747062E+02   -0.83544E-05   -0.12721E-04 10652   0.100E-01    0.869E-03
DAV:   6    -0.383929748741E+02   -0.16787E-06   -0.85920E-06 14300   0.315E-02    0.503E-03
DAV:   7    -0.383929748913E+02   -0.17257E-07   -0.12734E-06 12948   0.196E-02    0.235E-03
DAV:   8    -0.383929749972E+02   -0.10588E-06   -0.57196E-07 13336   0.874E-03    0.821E-04
DAV:   9    -0.383929750038E+02   -0.65606E-08   -0.93389E-08 11268   0.413E-03
[...]
 bond charge predicted
       N       E                     dE             d eps       ncg     rms          rms(c)
DAV:   1    -0.383971469437E+02   -0.13133E-04   -0.74963E-03  9972   0.489E-01    0.375E-02
DAV:   2    -0.383971457362E+02    0.12075E-05   -0.20938E-04 11028   0.133E-01    0.218E-02
DAV:   3    -0.383971386517E+02    0.70845E-05   -0.18076E-05 13992   0.515E-02    0.902E-03
DAV:   4    -0.383971374236E+02    0.12281E-05   -0.48504E-06 12752   0.287E-02    0.210E-03
DAV:   5    -0.383971374799E+02   -0.56243E-07   -0.14092E-06 10732   0.118E-02    0.112E-03
DAV:   6    -0.383971374841E+02   -0.42023E-08   -0.21292E-07 13112   0.656E-03    0.805E-04
DAV:   7    -0.383971374884E+02   -0.43647E-08   -0.44309E-08 10200   0.271E-03
  98 F= -.38397137E+02 E0= -.38396668E+02  d E =-.918941E-05
 curvature:  -4.49 expect dE=-0.219E-04 dE for cont linesearch -0.292E-06
 ZBRENT: extrapolating
 opt :   2.4250  next Energy=   -38.397138 (dE=-0.951E-05)
 bond charge predicted
       N       E                     dE             d eps       ncg     rms          rms(c)
DAV:   1    -0.383971393588E+02   -0.18748E-05   -0.11793E-03  9980   0.194E-01    0.149E-02
DAV:   2    -0.383971391773E+02    0.18156E-06   -0.32929E-05 11012   0.526E-02    0.865E-03
DAV:   3    -0.383971380193E+02    0.11579E-05   -0.28592E-06 14048   0.202E-02    0.356E-03
DAV:   4    -0.383971378315E+02    0.18780E-06   -0.76530E-07 12760   0.112E-02    0.844E-04
DAV:   5    -0.383971378364E+02   -0.49031E-08   -0.22075E-07 10728   0.456E-03    0.447E-04
DAV:   6    -0.383971378370E+02   -0.52296E-09   -0.28625E-08  8288   0.256E-03
  99 F= -.38397138E+02 E0= -.38396668E+02  d E =-.953795E-05
 curvature:  -4.86 expect dE=-0.351E-04 dE for cont linesearch -0.208E-10
 trial: gam= 1.03498 g(F)=  0.617E-05 g(S)=  0.105E-05 ort = 0.115E-07 (trialstep = 0.897E+00)
 search vector abs. value=  0.404E-04
 bond charge predicted
       N       E                     dE             d eps       ncg     rms          rms(c)
DAV:   1    -0.383971412096E+02   -0.33731E-05   -0.66398E-03  9960   0.455E-01    0.280E-02
DAV:   2    -0.383971460968E+02   -0.48872E-05   -0.16276E-04 11552   0.118E-01    0.169E-02
DAV:   3    -0.383971428607E+02    0.32361E-05   -0.12325E-05 13264   0.479E-02    0.764E-03
DAV:   4    -0.383971420199E+02    0.84076E-06   -0.30500E-06 12056   0.292E-02    0.161E-03
DAV:   5    -0.383971421016E+02   -0.81634E-07   -0.10565E-06 11016   0.131E-02    0.921E-04
DAV:   6    -0.383971421075E+02   -0.59326E-08   -0.14048E-07 10820   0.492E-03    0.620E-04
DAV:   7    -0.383971421040E+02    0.35243E-08   -0.25082E-08  7684   0.256E-03
 100 F= -.38397142E+02 E0= -.38396674E+02  d E =-.426700E-05
 trial-energy change:   -0.000004  1 .order   -0.000004   -0.000006   -0.000002
 step:   1.1737(harm=  1.2348)  dis= 0.00053  next Energy=   -38.397142 (dE=-0.454E-05)
 bond charge predicted
       N       E                     dE             d eps       ncg     rms          rms(c)
DAV:   1    -0.383971423426E+02   -0.23508E-06   -0.63205E-04  9964   0.140E-01    0.862E-03
DAV:   2    -0.383971427888E+02   -0.44625E-06   -0.15498E-05 11528   0.361E-02    0.521E-03
DAV:   3    -0.383971425278E+02    0.26102E-06   -0.11911E-06 13280   0.142E-02    0.235E-03
DAV:   4    -0.383971424614E+02    0.66457E-07   -0.29019E-07 12036   0.872E-03    0.500E-04
DAV:   5    -0.383971424704E+02   -0.90727E-08   -0.99695E-08 10780   0.405E-03
 101 F= -.38397142E+02 E0= -.38396675E+02  d E =-.463346E-05
 curvature:  -3.34 expect dE=-0.135E-04 dE for cont linesearch -0.997E-08
 trial: gam= 0.50380 g(F)=  0.326E-05 g(S)=  0.778E-06 ort = 0.348E-06 (trialstep = 0.952E+00)
 search vector abs. value=  0.147E-04
 bond charge predicted
       N       E                     dE             d eps       ncg     rms          rms(c)
DAV:   1    -0.383971467134E+02   -0.42520E-05   -0.26755E-03  9972   0.305E-01    0.230E-02
DAV:   2    -0.383971470255E+02   -0.31207E-06   -0.95592E-05 11920   0.111E-01    0.124E-02
DAV:   3    -0.383971454863E+02    0.15391E-05   -0.79999E-06 12788   0.332E-02    0.635E-03
DAV:   4    -0.383971448746E+02    0.61178E-06   -0.17947E-06 12376   0.194E-02    0.119E-03
DAV:   5    -0.383971449268E+02   -0.52220E-07   -0.68509E-07 10736   0.900E-03    0.696E-04
DAV:   6    -0.383971449236E+02    0.31878E-08   -0.80332E-08 11184   0.392E-03
 102 F= -.38397145E+02 E0= -.38396676E+02  d E =-.245317E-05
 trial-energy change:   -0.000002  1 .order   -0.000002   -0.000004   -0.000001
 step:   1.2309(harm=  1.2309)  dis= 0.00032  next Energy=   -38.397145 (dE=-0.259E-05)
 bond charge predicted
       N       E                     dE             d eps       ncg     rms          rms(c)
DAV:   1    -0.383971451841E+02   -0.25727E-06   -0.22918E-04 10016   0.893E-02    0.678E-03
DAV:   2    -0.383971451893E+02   -0.52814E-08   -0.82200E-06 11920   0.328E-02    0.363E-03
DAV:   3    -0.383971450877E+02    0.10163E-06   -0.68815E-07 12712   0.101E-02    0.187E-03
DAV:   4    -0.383971450513E+02    0.36461E-07   -0.15441E-07 12360   0.610E-03    0.360E-04
DAV:   5    -0.383971450559E+02   -0.46307E-08   -0.59174E-08 10584   0.296E-03
 103 F= -.38397145E+02 E0= -.38396676E+02  d E =-.258545E-05
 curvature:  -2.14 expect dE=-0.581E-05 dE for cont linesearch -0.142E-08
 trial: gam= 0.71855 g(F)=  0.221E-05 g(S)=  0.509E-06 ort = 0.986E-07 (trialstep = 0.101E+01)
 search vector abs. value=  0.104E-04
 bond charge predicted
       N       E                     dE             d eps       ncg     rms          rms(c)
DAV:   1    -0.383971440889E+02    0.96239E-06   -0.22697E-03  9868   0.262E-01    0.123E-02
DAV:   2    -0.383971476179E+02   -0.35291E-05   -0.56764E-05 12848   0.595E-02    0.737E-03
DAV:   3    -0.383971470573E+02    0.56068E-06   -0.26035E-06 12804   0.170E-02    0.399E-03
DAV:   4    -0.383971468104E+02    0.24690E-06   -0.75335E-07 12472   0.969E-03    0.982E-04
DAV:   5    -0.383971468126E+02   -0.21937E-08   -0.26370E-07 10744   0.469E-03    0.502E-04
DAV:   6    -0.383971468145E+02   -0.19377E-08   -0.29099E-08  9048   0.171E-03
 104 F= -.38397147E+02 E0= -.38396679E+02  d E =-.175861E-05
 trial-energy change:   -0.000002  1 .order   -0.000002   -0.000003   -0.000001
 step:   1.3912(harm=  1.3912)  dis= 0.00036  next Energy=   -38.397147 (dE=-0.194E-05)
 bond charge predicted
       N       E                     dE             d eps       ncg     rms          rms(c)
DAV:   1    -0.383971465711E+02    0.24147E-06   -0.32808E-04  9868   0.997E-02    0.472E-03
DAV:   2    -0.383971470845E+02   -0.51342E-06   -0.82183E-06 12840   0.230E-02    0.280E-03
DAV:   3    -0.383971469963E+02    0.88167E-07   -0.38817E-07 12772   0.671E-03    0.153E-03
DAV:   4    -0.383971469575E+02    0.38859E-07   -0.10180E-07 12424   0.420E-03    0.359E-04
DAV:   5    -0.383971469570E+02    0.46748E-09   -0.38219E-08  9496   0.220E-03
 105 F= -.38397147E+02 E0= -.38396679E+02  d E =-.190113E-05
 curvature:  -2.60 expect dE=-0.370E-05 dE for cont linesearch -0.256E-10
 trial: gam= 0.55459 g(F)=  0.107E-05 g(S)=  0.353E-06 ort = 0.101E-07 (trialstep = 0.108E+01)
 search vector abs. value=  0.464E-05
 bond charge predicted
       N       E                     dE             d eps       ncg     rms          rms(c)
DAV:   1    -0.383971479627E+02   -0.10052E-05   -0.11229E-03  9940   0.184E-01    0.105E-02
DAV:   2    -0.383971488602E+02   -0.89747E-06   -0.25480E-05 11456   0.428E-02    0.619E-03
DAV:   3    -0.383971482623E+02    0.59782E-06   -0.17849E-06 13196   0.167E-02    0.257E-03
DAV:   4    -0.383971481662E+02    0.96104E-07   -0.52888E-07 11768   0.106E-02    0.616E-04
DAV:   5    -0.383971481762E+02   -0.99371E-08   -0.15372E-07 11056   0.534E-03    0.383E-04
DAV:   6    -0.383971481760E+02    0.18326E-09   -0.19825E-08  7672   0.212E-03
 106 F= -.38397148E+02 E0= -.38396681E+02  d E =-.121898E-05
 trial-energy change:   -0.000001  1 .order   -0.000001   -0.000002   -0.000001
 step:   1.8250(harm=  2.2488)  dis= 0.00031  next Energy=   -38.397148 (dE=-0.151E-05)
 bond charge predicted
       N       E                     dE             d eps       ncg     rms          rms(c)
DAV:   1    -0.383971485106E+02   -0.33448E-06   -0.52342E-04  9944   0.126E-01    0.716E-03
DAV:   2    -0.383971489237E+02   -0.41301E-06   -0.11916E-05 11408   0.299E-02    0.425E-03
DAV:   3    -0.383971486532E+02    0.27048E-06   -0.87706E-07 13228   0.132E-02    0.181E-03
DAV:   4    -0.383971486057E+02    0.47500E-07   -0.26458E-07 11944   0.808E-03    0.423E-04
DAV:   5    -0.383971486106E+02   -0.49690E-08   -0.79842E-08 10728   0.364E-03
 107 F= -.38397149E+02 E0= -.38396682E+02  d E =-.165363E-05
 curvature:  -3.17 expect dE=-0.250E-05 dE for cont linesearch -0.687E-07
 trial: gam= 0.29866 g(F)=  0.654E-06 g(S)=  0.136E-06 ort = 0.317E-06 (trialstep = 0.123E+01)
 search vector abs. value=  0.139E-05
 bond charge predicted
       N       E                     dE             d eps       ncg     rms          rms(c)
DAV:   1    -0.383971494856E+02   -0.87995E-06   -0.43047E-04 10136   0.131E-01    0.104E-02
DAV:   2    -0.383971495649E+02   -0.79296E-07   -0.22201E-05 11264   0.566E-02    0.498E-03
DAV:   3    -0.383971492978E+02    0.26715E-06   -0.19025E-06 12240   0.164E-02    0.259E-03
DAV:   4    -0.383971491369E+02    0.16091E-06   -0.32927E-07 13376   0.890E-03    0.623E-04
DAV:   5    -0.383971491282E+02    0.86470E-08   -0.11784E-07 10752   0.373E-03    0.259E-04
DAV:   6    -0.383971491289E+02   -0.67666E-09   -0.13213E-08  6132   0.160E-03
 108 F= -.38397149E+02 E0= -.38396684E+02  d E =-.518249E-06
 trial-energy change:   -0.000001  1 .order   -0.000001   -0.000001    0.000000
 step:   1.1624(harm=  1.1624)  dis= 0.00014  next Energy=   -38.397149 (dE=-0.514E-06)
 bond charge predicted
       N       E                     dE             d eps       ncg     rms          rms(c)
DAV:   1    -0.383971491271E+02    0.11350E-08   -0.13910E-06 10300   0.751E-03    0.578E-04
DAV:   2    -0.383971491284E+02   -0.13606E-08   -0.70641E-08 10384   0.307E-03
 109 F= -.38397149E+02 E0= -.38396684E+02  d E =-.517798E-06
 curvature:  -0.92 expect dE=-0.353E-06 dE for cont linesearch -0.559E-08
 trial: gam= 0.54027 g(F)=  0.270E-06 g(S)=  0.115E-06 ort = 0.923E-07 (trialstep = 0.122E+01)
 search vector abs. value=  0.892E-06
 bond charge predicted
       N       E                     dE             d eps       ncg     rms          rms(c)
DAV:   1    -0.383971497236E+02   -0.59653E-06   -0.25085E-04 10200   0.925E-02    0.664E-03
DAV:   2    -0.383971497209E+02    0.26798E-08   -0.77866E-06 11416   0.301E-02    0.382E-03
DAV:   3    -0.383971495212E+02    0.19972E-06   -0.68966E-07 12936   0.107E-02    0.186E-03
DAV:   4    -0.383971494373E+02    0.83959E-07   -0.14939E-07 13092   0.577E-03    0.358E-04
DAV:   5    -0.383971494350E+02    0.22878E-08   -0.56507E-08 10572   0.258E-03
 110 F= -.38397149E+02 E0= -.38396684E+02  d E =-.306524E-06
 trial-energy change:   -0.000000  1 .order   -0.000000   -0.000001   -0.000000
 step:   1.7651(harm=  1.7651)  dis= 0.00017  next Energy=   -38.397150 (dE=-0.384E-06)
 bond charge predicted
       N       E                     dE             d eps       ncg     rms          rms(c)
DAV:   1    -0.383971495540E+02   -0.11678E-06   -0.50531E-05 10204   0.416E-02    0.302E-03
DAV:   2    -0.383971495557E+02   -0.16280E-08   -0.15786E-06 11456   0.135E-02    0.174E-03
DAV:   3    -0.383971495000E+02    0.55623E-07   -0.14146E-07 12904   0.479E-03    0.843E-04
DAV:   4    -0.383971494763E+02    0.23769E-07   -0.25840E-08  7920   0.257E-03    0.169E-04
DAV:   5    -0.383971494745E+02    0.17931E-08   -0.14132E-08  5856   0.129E-03
 111 F= -.38397149E+02 E0= -.38396684E+02  d E =-.346036E-06
 curvature:  -1.81 expect dE=-0.620E-06 dE for cont linesearch -0.357E-08
 trial: gam= 0.69962 g(F)=  0.200E-06 g(S)=  0.143E-06 ort = 0.420E-07 (trialstep = 0.133E+01)
 search vector abs. value=  0.839E-06
 bond charge predicted
       N       E                     dE             d eps       ncg     rms          rms(c)
DAV:   1    -0.383971507200E+02   -0.12437E-05   -0.27238E-04 10292   0.113E-01    0.106E-02
DAV:   2    -0.383971500416E+02    0.67839E-06   -0.16893E-05 11184   0.533E-02    0.513E-03
DAV:   3    -0.383971498820E+02    0.15957E-06   -0.13981E-06 13200   0.141E-02    0.251E-03
DAV:   4    -0.383971498133E+02    0.68664E-07   -0.25305E-07 13092   0.756E-03    0.508E-04
DAV:   5    -0.383971498323E+02   -0.18934E-07   -0.94384E-08 10720   0.295E-03    0.195E-04
DAV:   6    -0.383971498312E+02    0.10896E-08   -0.73316E-09  5984   0.117E-03
 112 F= -.38397150E+02 E0= -.38396685E+02  d E =-.356700E-06
 trial-energy change:   -0.000000  1 .order   -0.000000   -0.000000   -0.000000
 step:   1.4945(harm=  1.6637)  dis= 0.00013  next Energy=   -38.397150 (dE=-0.363E-06)
 bond charge predicted
       N       E                     dE             d eps       ncg     rms          rms(c)
DAV:   1    -0.383971498449E+02   -0.12668E-07   -0.42945E-06 10344   0.141E-02    0.134E-03
DAV:   2    -0.383971498296E+02    0.15295E-07   -0.26176E-07 11256   0.672E-03    0.644E-04
DAV:   3    -0.383971498366E+02   -0.69631E-08   -0.17412E-08  6244   0.181E-03
 113 F= -.38397150E+02 E0= -.38396685E+02  d E =-.362125E-06
 curvature:  -1.40 expect dE=-0.480E-06 dE for cont linesearch -0.257E-08
 trial: gam= 0.95304 g(F)=  0.214E-06 g(S)=  0.129E-06 ort = 0.393E-07 (trialstep = 0.967E+00)
 search vector abs. value=  0.118E-05
 bond charge predicted
       N       E                     dE             d eps       ncg     rms          rms(c)
DAV:   1    -0.383971502198E+02   -0.39021E-06   -0.21049E-04  9984   0.818E-02    0.566E-03
DAV:   2    -0.383971502869E+02   -0.67046E-07   -0.56205E-06 11328   0.213E-02    0.329E-03
DAV:   3    -0.383971501040E+02    0.18291E-06   -0.46896E-07 13180   0.762E-03    0.138E-03
DAV:   4    -0.383971500852E+02    0.18731E-07   -0.12645E-07 11688   0.470E-03    0.271E-04
DAV:   5    -0.383971500883E+02   -0.31018E-08   -0.37521E-08  9016   0.193E-03
 114 F= -.38397150E+02 E0= -.38396685E+02  d E =-.251746E-06
 trial-energy change:   -0.000000  1 .order   -0.000000   -0.000000   -0.000000
 step:   1.5170(harm=  1.5170)  dis= 0.00017  next Energy=   -38.397150 (dE=-0.289E-06)
 bond charge predicted
       N       E                     dE             d eps       ncg     rms          rms(c)
DAV:   1    -0.383971501759E+02   -0.90639E-07   -0.67946E-05  9992   0.464E-02    0.321E-03
DAV:   2    -0.383971502012E+02   -0.25289E-07   -0.18189E-06 11320   0.120E-02    0.186E-03
DAV:   3    -0.383971501388E+02    0.62421E-07   -0.14732E-07 13308   0.410E-03    0.770E-04
DAV:   4    -0.383971501355E+02    0.32906E-08   -0.37802E-08  9588   0.252E-03
 115 F= -.38397150E+02 E0= -.38396685E+02  d E =-.298861E-06
 curvature:  -2.35 expect dE=-0.563E-06 dE for cont linesearch -0.234E-08
 trial: gam= 0.88310 g(F)=  0.128E-06 g(S)=  0.112E-06 ort = 0.343E-07 (trialstep = 0.104E+01)
 search vector abs. value=  0.122E-05
 bond charge predicted
       N       E                     dE             d eps       ncg     rms          rms(c)
DAV:   1    -0.383971508048E+02   -0.66607E-06   -0.23405E-04  9988   0.924E-02    0.846E-03
DAV:   2    -0.383971505350E+02    0.26987E-06   -0.94079E-06 11720   0.366E-02    0.458E-03
DAV:   3    -0.383971503324E+02    0.20260E-06   -0.91966E-07 13068   0.119E-02    0.221E-03
DAV:   4    -0.383971502697E+02    0.62633E-07   -0.21797E-07 12048   0.677E-03    0.374E-04
DAV:   5    -0.383971502763E+02   -0.65552E-08   -0.75024E-08 10708   0.284E-03
 116 F= -.38397150E+02 E0= -.38396685E+02  d E =-.140813E-06
 trial-energy change:   -0.000000  1 .order   -0.000000   -0.000000   -0.000000
 step:   1.5189(harm=  1.5189)  dis= 0.00014  next Energy=   -38.397150 (dE=-0.205E-06)
 bond charge predicted
       N       E                     dE             d eps       ncg     rms          rms(c)
DAV:   1    -0.383971503978E+02   -0.12812E-06   -0.49207E-05 10008   0.424E-02    0.390E-03
DAV:   2    -0.383971503292E+02    0.68672E-07   -0.19974E-06 11720   0.168E-02    0.210E-03
DAV:   3    -0.383971502984E+02    0.30768E-07   -0.19344E-07 13032   0.539E-03    0.102E-03
DAV:   4    -0.383971502878E+02    0.10616E-07   -0.43940E-08  9936   0.303E-03    0.163E-04
DAV:   5    -0.383971502898E+02   -0.19832E-08   -0.16208E-08  6032   0.129E-03
 117 F= -.38397150E+02 E0= -.38396685E+02  d E =-.154301E-06
 curvature:  -3.44 expect dE=-0.108E-05 dE for cont linesearch -0.632E-08
 trial: gam= 0.99185 g(F)=  0.241E-06 g(S)=  0.740E-07 ort = 0.474E-07 (trialstep = 0.862E+00)
 search vector abs. value=  0.161E-05
 bond charge predicted
       N       E                     dE             d eps       ncg     rms          rms(c)
DAV:   1    -0.383971506222E+02   -0.33437E-06   -0.22521E-04  9860   0.837E-02    0.614E-03
DAV:   2    -0.383971507203E+02   -0.98130E-07   -0.61408E-06 12992   0.211E-02    0.371E-03
DAV:   3    -0.383971504961E+02    0.22418E-06   -0.39534E-07 14576   0.751E-03    0.144E-03
DAV:   4    -0.383971504628E+02    0.33259E-07   -0.12280E-07 11556   0.380E-03    0.319E-04
DAV:   5    -0.383971504644E+02   -0.15657E-08   -0.32631E-08  8836   0.159E-03
 118 F= -.38397150E+02 E0= -.38396686E+02  d E =-.174648E-06
 trial-energy change:   -0.000000  1 .order   -0.000000   -0.000000   -0.000000
 step:   1.4135(harm=  1.4135)  dis= 0.00013  next Energy=   -38.397151 (dE=-0.256E-06)
 bond charge predicted
       N       E                     dE             d eps       ncg     rms          rms(c)
DAV:   1    -0.383971505513E+02   -0.88430E-07   -0.92077E-05  9868   0.535E-02    0.393E-03
DAV:   2    -0.383971505890E+02   -0.37772E-07   -0.25184E-06 13024   0.135E-02    0.237E-03
DAV:   3    -0.383971504928E+02    0.96296E-07   -0.15490E-07 13520   0.462E-03    0.919E-04
DAV:   4    -0.383971504780E+02    0.14708E-07   -0.50875E-08 10680   0.228E-03    0.195E-04
DAV:   5    -0.383971504788E+02   -0.78717E-09   -0.12738E-08  5956   0.947E-04
 119 F= -.38397150E+02 E0= -.38396686E+02  d E =-.189067E-06
 curvature:  -3.14 expect dE=-0.664E-06 dE for cont linesearch -0.613E-11
 trial: gam= 0.90254 g(F)=  0.166E-06 g(S)=  0.456E-07 ort = 0.177E-08 (trialstep = 0.973E+00)
 search vector abs. value=  0.153E-05
 bond charge predicted
       N       E                     dE             d eps       ncg     rms          rms(c)
DAV:   1    -0.383971510075E+02   -0.52947E-06   -0.27278E-04  9860   0.917E-02    0.726E-03
DAV:   2    -0.383971509313E+02    0.76186E-07   -0.67972E-06 12216   0.233E-02    0.435E-03
DAV:   3    -0.383971505991E+02    0.33224E-06   -0.52901E-07 13616   0.832E-03    0.160E-03
DAV:   4    -0.383971505611E+02    0.38035E-07   -0.17453E-07 11744   0.430E-03    0.329E-04
DAV:   5    -0.383971505613E+02   -0.22146E-09   -0.44874E-08 10364   0.180E-03
 120 F= -.38397151E+02 E0= -.38396686E+02  d E =-.824461E-07
 trial-energy change:   -0.000000  1 .order   -0.000000   -0.000000   -0.000000
 step:   1.3409(harm=  1.3409)  dis= 0.00008  next Energy=   -38.397151 (dE=-0.143E-06)
 bond charge predicted
       N       E                     dE             d eps       ncg     rms          rms(c)
DAV:   1    -0.383971506335E+02   -0.72432E-07   -0.39148E-05  9872   0.347E-02    0.276E-03
DAV:   2    -0.383971506199E+02    0.13611E-07   -0.97976E-07 12304   0.878E-03    0.165E-03
DAV:   3    -0.383971505621E+02    0.57759E-07   -0.71415E-08 12600   0.306E-03    0.602E-04
DAV:   4    -0.383971505554E+02    0.67093E-08   -0.22147E-08  7348   0.160E-03
 121 F= -.38397151E+02 E0= -.38396686E+02  d E =-.765767E-07
 curvature:  -4.81 expect dE=-0.117E-05 dE for cont linesearch -0.368E-08
 trial: gam= 0.90769 g(F)=  0.953E-07 g(S)=  0.148E-06 ort = 0.342E-07 (trialstep = 0.102E+01)
 search vector abs. value=  0.156E-05
 reached required accuracy - stopping structural energy minimisation
 writing wavefunctions
Tue Jan  4 00:13:41 CST 2022
