Mon Jan  3 23:25:34 CST 2022
 running on   48 total cores
 distrk:  each k-point on   48 cores,    1 groups
 distr:  one band on   24 cores,    2 groups
 using from now: INCAR     
 vasp.5.3.5 31Mar14 (build Jan 11 2016 19:50:55) complex                        
  
 POSCAR found type information on POSCAR  Zn Ga N  O 
 POSCAR found :  4 types and       8 ions
 scaLAPACK will be used

 ----------------------------------------------------------------------------- 
|                                                                             |
|           W    W    AA    RRRRR   N    N  II  N    N   GGGG   !!!           |
|           W    W   A  A   R    R  NN   N  II  NN   N  G    G  !!!           |
|           W    W  A    A  R    R  N N  N  II  N N  N  G       !!!           |
|           W WW W  AAAAAA  RRRRR   N  N N  II  N  N N  G  GGG   !            |
|           WW  WW  A    A  R   R   N   NN  II  N   NN  G    G                |
|           W    W  A    A  R    R  N    N  II  N    N   GGGG   !!!           |
|                                                                             |
|      For optimal performance we recommend to set                            |
|        NCORE= 4 - approx SQRT( number of cores)                             |
|      NCORE specifies how many cores store one orbital (NPAR=cpu/NCORE).     |
|      This setting can  greatly improve the performance of VASP for DFT.     |
|      The default, NPAR=number of cores might be grossly inefficient         |
|      on modern multi-core architectures or massively parallel machines.     |
|      Do your own testing !!!!                                               |
|      Unfortunately you need to use the default for GW and RPA calculations. |
|      (for HF NCORE is supported but not extensively tested yet)             |
|                                                                             |
 ----------------------------------------------------------------------------- 

 LDA part: xc-table for Pade appr. of Perdew
 POSCAR, INCAR and KPOINTS ok, starting setup
 WARNING: small aliasing (wrap around) errors must be expected
 FFT: planning ...
 WAVECAR not read
 entering main loop
       N       E                     dE             d eps       ncg     rms          rms(c)
DAV:   1     0.880212663857E+03    0.88021E+03   -0.42100E+04 10096   0.315E+03
DAV:   2     0.141351134480E+03   -0.73886E+03   -0.71144E+03  9992   0.757E+02
DAV:   3    -0.278785026892E+02   -0.16923E+03   -0.16478E+03 11408   0.259E+02
DAV:   4    -0.429441423895E+02   -0.15066E+02   -0.14855E+02 11856   0.774E+01
DAV:   5    -0.434516369495E+02   -0.50749E+00   -0.50507E+00 11984   0.137E+01    0.146E+01
DAV:   6    -0.378939916108E+02    0.55576E+01   -0.23202E+01 18568   0.622E+01    0.717E+00
DAV:   7    -0.381974934969E+02   -0.30350E+00   -0.53844E+00 10612   0.169E+01    0.462E+00
DAV:   8    -0.381794198336E+02    0.18074E-01   -0.13756E+00 15336   0.784E+00    0.211E+00
DAV:   9    -0.381234561532E+02    0.55964E-01   -0.20126E-01 13420   0.484E+00    0.810E-01
DAV:  10    -0.381181982472E+02    0.52579E-02   -0.10792E-01 14584   0.234E+00    0.214E-01
DAV:  11    -0.381192448008E+02   -0.10466E-02   -0.10662E-02 11624   0.135E+00    0.120E-01
DAV:  12    -0.381197815105E+02   -0.53671E-03   -0.19454E-03 11712   0.642E-01    0.547E-02
DAV:  13    -0.381199033278E+02   -0.12182E-03   -0.63331E-04 12700   0.256E-01    0.269E-02
DAV:  14    -0.381199450165E+02   -0.41689E-04   -0.13004E-04 10752   0.142E-01    0.123E-02
DAV:  15    -0.381199554661E+02   -0.10450E-04   -0.32201E-05 13936   0.765E-02    0.730E-03
DAV:  16    -0.381199597230E+02   -0.42569E-05   -0.10335E-05 10672   0.324E-02    0.181E-03
DAV:  17    -0.381199602745E+02   -0.55149E-06   -0.23521E-06 12696   0.129E-02    0.173E-03
DAV:  18    -0.381199602986E+02   -0.24140E-07   -0.28613E-07 12284   0.839E-03    0.675E-04
DAV:  19    -0.381199602892E+02    0.94474E-08   -0.13163E-07 11288   0.238E-03    0.241E-04
DAV:  20    -0.381199602939E+02   -0.47557E-08   -0.10917E-08  8028   0.189E-03
   1 F= -.38119960E+02 E0= -.38107185E+02  d E =-.381200E+02
 curvature:   0.00 expect dE= 0.000E+00 dE for cont linesearch  0.000E+00
 trial: gam= 0.00000 g(F)=  0.299E-03 g(S)=  0.175E-04 ort = 0.000E+00 (trialstep = 0.100E+01)
 search vector abs. value=  0.317E-03
 bond charge predicted
       N       E                     dE             d eps       ncg     rms          rms(c)
DAV:   1    -0.381192260951E+02    0.73419E-03   -0.69624E-02  9888   0.138E+00    0.881E-02
DAV:   2    -0.381195604312E+02   -0.33434E-03   -0.41821E-03 10864   0.428E-01    0.685E-02
DAV:   3    -0.381195166507E+02    0.43781E-04   -0.16907E-04 12236   0.102E-01    0.475E-02
DAV:   4    -0.381194895182E+02    0.27133E-04   -0.71459E-05 10528   0.703E-02    0.140E-02
DAV:   5    -0.381194896746E+02   -0.15646E-06   -0.16008E-05 11984   0.378E-02    0.562E-03
DAV:   6    -0.381194897771E+02   -0.10244E-06   -0.22410E-06 11432   0.185E-02    0.275E-03
DAV:   7    -0.381194897926E+02   -0.15567E-07   -0.50086E-07 12252   0.108E-02    0.120E-03
DAV:   8    -0.381194898079E+02   -0.15270E-07   -0.11906E-07 11252   0.535E-03    0.509E-04
DAV:   9    -0.381194898140E+02   -0.61086E-08   -0.47096E-08 11464   0.250E-03
   2 F= -.38119490E+02 E0= -.38106588E+02  d E =0.470480E-03
 trial-energy change:    0.000470  1 .order    0.000463   -0.000317    0.001244
 step:   0.1987(harm=  0.2030)  dis= 0.00043  next Energy=   -38.119992 (dE=-0.314E-04)
 bond charge predicted
       N       E                     dE             d eps       ncg     rms          rms(c)
DAV:   1    -0.381198180869E+02   -0.32828E-03   -0.44663E-02  9856   0.110E+00    0.711E-02
DAV:   2    -0.381200353585E+02   -0.21727E-03   -0.26950E-03 10864   0.342E-01    0.545E-02
DAV:   3    -0.381200075614E+02    0.27797E-04   -0.10919E-04 12224   0.818E-02    0.374E-02
DAV:   4    -0.381199912221E+02    0.16339E-04   -0.47670E-05 10512   0.569E-02    0.107E-02
DAV:   5    -0.381199914780E+02   -0.25596E-06   -0.10324E-05 12000   0.307E-02    0.442E-03
DAV:   6    -0.381199915129E+02   -0.34814E-07   -0.14701E-06 11264   0.154E-02    0.219E-03
DAV:   7    -0.381199915074E+02    0.54929E-08   -0.32192E-07 12440   0.898E-03    0.965E-04
DAV:   8    -0.381199914981E+02    0.92232E-08   -0.77832E-08 10876   0.446E-03
   3 F= -.38119991E+02 E0= -.38107191E+02  d E =-.312042E-04
 curvature:  -0.10 expect dE=-0.642E-05 dE for cont linesearch -0.460E-08
 trial: gam= 0.18774 g(F)=  0.312E-04 g(S)=  0.320E-04 ort = 0.379E-05 (trialstep = 0.840E+00)
 search vector abs. value=  0.758E-04
 bond charge predicted
       N       E                     dE             d eps       ncg     rms          rms(c)
DAV:   1    -0.381201116146E+02   -0.12011E-03   -0.83597E-03 11140   0.700E-01    0.797E-02
DAV:   2    -0.381200526026E+02    0.59012E-04   -0.77270E-04 11612   0.364E-01    0.386E-02
DAV:   3    -0.381200348654E+02    0.17737E-04   -0.70997E-05 13316   0.945E-02    0.182E-02
DAV:   4    -0.381200281594E+02    0.67060E-05   -0.14113E-05 13304   0.514E-02    0.419E-03
DAV:   5    -0.381200283853E+02   -0.22581E-06   -0.56288E-06 10728   0.199E-02    0.176E-03
DAV:   6    -0.381200283906E+02   -0.53701E-08   -0.48267E-07 13616   0.457E-03    0.100E-03
DAV:   7    -0.381200283774E+02    0.13206E-07   -0.93819E-08 12504   0.289E-03    0.549E-04
DAV:   8    -0.381200283625E+02    0.14956E-07   -0.20018E-08  7428   0.155E-03    0.168E-04
DAV:   9    -0.381200283591E+02    0.33706E-08   -0.75680E-09  5884   0.929E-04
   4 F= -.38120028E+02 E0= -.38107233E+02  d E =-.368609E-04
 trial-energy change:   -0.000037  1 .order   -0.000037   -0.000054   -0.000021
 step:   1.4100(harm=  1.3613)  dis= 0.00069  next Energy=   -38.120035 (dE=-0.438E-04)
 bond charge predicted
       N       E                     dE             d eps       ncg     rms          rms(c)
DAV:   1    -0.381200756217E+02   -0.47259E-04   -0.38537E-03 11040   0.476E-01    0.541E-02
DAV:   2    -0.381200487043E+02    0.26917E-04   -0.36060E-04 11616   0.249E-01    0.262E-02
DAV:   3    -0.381200406994E+02    0.80050E-05   -0.32922E-05 13316   0.642E-02    0.123E-02
DAV:   4    -0.381200376578E+02    0.30415E-05   -0.65264E-06 13272   0.349E-02    0.283E-03
DAV:   5    -0.381200377812E+02   -0.12336E-06   -0.25917E-06 10732   0.135E-02    0.119E-03
DAV:   6    -0.381200377816E+02   -0.43019E-09   -0.22212E-07 13472   0.309E-03    0.680E-04
DAV:   7    -0.381200377727E+02    0.89208E-08   -0.40058E-08  8992   0.193E-03
   5 F= -.38120038E+02 E0= -.38107245E+02  d E =-.462746E-04
 curvature:  -0.80 expect dE=-0.289E-04 dE for cont linesearch -0.169E-07
 trial: gam= 0.60340 g(F)=  0.219E-04 g(S)=  0.143E-04 ort =-0.127E-05 (trialstep = 0.954E+00)
 search vector abs. value=  0.622E-04
 bond charge predicted
       N       E                     dE             d eps       ncg     rms          rms(c)
DAV:   1    -0.381201026190E+02   -0.64837E-04   -0.88150E-03 10008   0.548E-01    0.546E-02
DAV:   2    -0.381200828759E+02    0.19743E-04   -0.31759E-04 11568   0.187E-01    0.322E-02
DAV:   3    -0.381200644074E+02    0.18468E-04   -0.32886E-05 14232   0.729E-02    0.113E-02
DAV:   4    -0.381200626439E+02    0.17635E-05   -0.10178E-05 10908   0.460E-02    0.236E-03
DAV:   5    -0.381200628723E+02   -0.22846E-06   -0.31248E-06 11092   0.213E-02    0.177E-03
DAV:   6    -0.381200628730E+02   -0.65211E-09   -0.36436E-07 12108   0.126E-02    0.971E-04
DAV:   7    -0.381200628779E+02   -0.49426E-08   -0.83019E-08 10996   0.418E-03
   6 F= -.38120063E+02 E0= -.38107284E+02  d E =-.251052E-04
 trial-energy change:   -0.000025  1 .order   -0.000027   -0.000034   -0.000020
 step:   2.2865(harm=  2.2865)  dis= 0.00096  next Energy=   -38.120078 (dE=-0.404E-04)
 bond charge predicted
       N       E                     dE             d eps       ncg     rms          rms(c)
DAV:   1    -0.381201523718E+02   -0.89499E-04   -0.17207E-02 10004   0.766E-01    0.762E-02
DAV:   2    -0.381201139600E+02    0.38412E-04   -0.61919E-04 11568   0.261E-01    0.450E-02
DAV:   3    -0.381200780710E+02    0.35889E-04   -0.64287E-05 14244   0.103E-01    0.157E-02
DAV:   4    -0.381200746785E+02    0.33924E-05   -0.19931E-05 10872   0.648E-02    0.330E-03
DAV:   5    -0.381200751326E+02   -0.45412E-06   -0.61357E-06 11120   0.298E-02    0.247E-03
DAV:   6    -0.381200751354E+02   -0.28040E-08   -0.71865E-07 12112   0.178E-02    0.136E-03
DAV:   7    -0.381200751450E+02   -0.95115E-08   -0.17219E-07 13036   0.583E-03    0.450E-04
DAV:   8    -0.381200751558E+02   -0.10824E-07   -0.41691E-08  8380   0.284E-03    0.224E-04
DAV:   9    -0.381200751578E+02   -0.19786E-08   -0.78016E-09  5744   0.143E-03
   7 F= -.38120075E+02 E0= -.38107314E+02  d E =-.373851E-04
 curvature:  -2.01 expect dE=-0.804E-04 dE for cont linesearch -0.271E-07
 trial: gam= 1.07189 g(F)=  0.358E-04 g(S)=  0.420E-05 ort =-0.916E-06 (trialstep = 0.693E+00)
 search vector abs. value=  0.109E-03
 bond charge predicted
       N       E                     dE             d eps       ncg     rms          rms(c)
DAV:   1    -0.381200929412E+02   -0.17785E-04   -0.88851E-03 10164   0.580E-01    0.485E-02
DAV:   2    -0.381200920921E+02    0.84910E-06   -0.40961E-04 11624   0.224E-01    0.274E-02
DAV:   3    -0.381200837896E+02    0.83025E-05   -0.44535E-05 13284   0.694E-02    0.134E-02
DAV:   4    -0.381200810823E+02    0.27073E-05   -0.79089E-06 12496   0.412E-02    0.311E-03
DAV:   5    -0.381200812075E+02   -0.12514E-06   -0.24685E-06 10728   0.174E-02    0.140E-03
DAV:   6    -0.381200812193E+02   -0.11796E-07   -0.41689E-07 12392   0.108E-02    0.867E-04
DAV:   7    -0.381200812077E+02    0.11569E-07   -0.67621E-08 10668   0.606E-03    0.385E-04
DAV:   8    -0.381200812015E+02    0.62246E-08   -0.22446E-08  6696   0.152E-03
   8 F= -.38120081E+02 E0= -.38107346E+02  d E =-.604370E-05
 trial-energy change:   -0.000006  1 .order   -0.000006   -0.000027    0.000015
 step:   0.4468(harm=  0.4407)  dis= 0.00045  next Energy=   -38.120084 (dE=-0.879E-05)
 bond charge predicted
       N       E                     dE             d eps       ncg     rms          rms(c)
DAV:   1    -0.381200855193E+02   -0.43116E-05   -0.11224E-03 10168   0.206E-01    0.172E-02
DAV:   2    -0.381200855298E+02   -0.10551E-07   -0.52008E-05 11632   0.802E-02    0.975E-03
DAV:   3    -0.381200842817E+02    0.12481E-05   -0.56500E-06 13284   0.251E-02    0.476E-03
DAV:   4    -0.381200838946E+02    0.38712E-06   -0.10153E-06 12432   0.149E-02    0.110E-03
DAV:   5    -0.381200838974E+02   -0.28531E-08   -0.31324E-07 10732   0.623E-03    0.494E-04
DAV:   6    -0.381200839017E+02   -0.42869E-08   -0.51275E-08 10040   0.384E-03
   9 F= -.38120084E+02 E0= -.38107340E+02  d E =-.874394E-05
 curvature:  -0.62 expect dE=-0.325E-04 dE for cont linesearch -0.212E-09
 trial: gam= 1.29342 g(F)=  0.461E-04 g(S)=  0.646E-05 ort = 0.194E-06 (trialstep = 0.299E+00)
 search vector abs. value=  0.236E-03
 bond charge predicted
       N       E                     dE             d eps       ncg     rms          rms(c)
DAV:   1    -0.381200964340E+02   -0.12537E-04   -0.38881E-03 10156   0.361E-01    0.243E-02
DAV:   2    -0.381200991782E+02   -0.27443E-05   -0.13522E-04 11736   0.114E-01    0.135E-02
DAV:   3    -0.381200974633E+02    0.17149E-05   -0.13232E-05 12984   0.380E-02    0.691E-03
DAV:   4    -0.381200966666E+02    0.79671E-06   -0.24240E-06 13456   0.273E-02    0.180E-03
DAV:   5    -0.381200966923E+02   -0.25663E-07   -0.80840E-07 10760   0.122E-02    0.850E-04
DAV:   6    -0.381200967070E+02   -0.14782E-07   -0.20256E-07 13516   0.537E-03    0.593E-04
DAV:   7    -0.381200967010E+02    0.60572E-08   -0.19613E-08  6848   0.335E-03
  10 F= -.38120097E+02 E0= -.38107350E+02  d E =-.127993E-04
 trial-energy change:   -0.000013  1 .order   -0.000013   -0.000016   -0.000010
 step:   0.8340(harm=  0.8340)  dis= 0.00097  next Energy=   -38.120106 (dE=-0.220E-04)
 bond charge predicted
       N       E                     dE             d eps       ncg     rms          rms(c)
DAV:   1    -0.381201055149E+02   -0.88078E-05   -0.12518E-02 10156   0.647E-01    0.436E-02
DAV:   2    -0.381201145009E+02   -0.89860E-05   -0.43486E-04 11736   0.205E-01    0.243E-02
DAV:   3    -0.381201088043E+02    0.56966E-05   -0.42825E-05 12984   0.695E-02    0.124E-02
DAV:   4    -0.381201062626E+02    0.25417E-05   -0.79172E-06 13464   0.503E-02    0.325E-03
DAV:   5    -0.381201063246E+02   -0.61976E-07   -0.26095E-06 10756   0.223E-02    0.153E-03
DAV:   6    -0.381201063695E+02   -0.44936E-07   -0.66807E-07 13516   0.963E-03    0.107E-03
DAV:   7    -0.381201063568E+02    0.12685E-07   -0.70397E-08 10488   0.598E-03    0.617E-04
DAV:   8    -0.381201063488E+02    0.80436E-08   -0.46150E-08 10800   0.209E-03
  11 F= -.38120106E+02 E0= -.38107357E+02  d E =-.224471E-04
 curvature:  -1.87 expect dE=-0.129E-04 dE for cont linesearch -0.529E-07
 trial: gam= 0.11296 g(F)=  0.489E-05 g(S)=  0.201E-05 ort = 0.259E-05 (trialstep = 0.406E+00)
 search vector abs. value=  0.105E-04
 bond charge predicted
       N       E                     dE             d eps       ncg     rms          rms(c)
DAV:   1    -0.381201081780E+02   -0.18211E-05   -0.32725E-04 10132   0.106E-01    0.884E-03
DAV:   2    -0.381201079655E+02    0.21243E-06   -0.12258E-05 11308   0.399E-02    0.497E-03
DAV:   3    -0.381201076969E+02    0.26864E-06   -0.14455E-06 13320   0.152E-02    0.219E-03
DAV:   4    -0.381201076330E+02    0.63929E-07   -0.29223E-07 12144   0.916E-03    0.502E-04
DAV:   5    -0.381201076412E+02   -0.82318E-08   -0.99814E-08 10660   0.420E-03
  12 F= -.38120108E+02 E0= -.38107357E+02  d E =-.129241E-05
 ZBRENT: can't locate minimum, use default step
 trial-energy change:   -0.000001  1 .order   -0.000003   -0.000003   -0.000002
 step:   1.6224(harm=  2.1156)  dis= 0.00041  next Energy=   -38.120114 (dE=-0.761E-05)
 bond charge predicted
       N       E                     dE             d eps       ncg     rms          rms(c)
DAV:   1    -0.381201181242E+02   -0.10491E-04   -0.29469E-03 10116   0.319E-01    0.265E-02
DAV:   2    -0.381201163701E+02    0.17541E-05   -0.10976E-04 11272   0.119E-01    0.149E-02
DAV:   3    -0.381201134614E+02    0.29087E-05   -0.12941E-05 13432   0.458E-02    0.651E-03
DAV:   4    -0.381201127688E+02    0.69259E-06   -0.26163E-06 11960   0.271E-02    0.149E-03
DAV:   5    -0.381201128318E+02   -0.62974E-07   -0.89688E-07 10816   0.124E-02    0.892E-04
DAV:   6    -0.381201128379E+02   -0.60413E-08   -0.14840E-07 11380   0.688E-03    0.545E-04
DAV:   7    -0.381201128358E+02    0.20491E-08   -0.23852E-08  7344   0.285E-03
  13 F= -.38120113E+02 E0= -.38107359E+02  d E =-.648701E-05
 curvature:  -1.42 expect dE=-0.913E-05 dE for cont linesearch -0.684E-06
 ZBRENT: increasing intervall
 opt :   4.0561  next Energy=   -38.120110 (dE=-0.329E-05)
 bond charge predicted
       N       E                     dE             d eps       ncg     rms          rms(c)
DAV:   1    -0.381201318175E+02   -0.18980E-04   -0.11787E-02 10116   0.638E-01    0.529E-02
DAV:   2    -0.381201246961E+02    0.71214E-05   -0.43795E-04 11256   0.238E-01    0.298E-02
DAV:   3    -0.381201125507E+02    0.12145E-04   -0.51853E-05 13448   0.929E-02    0.130E-02
DAV:   4    -0.381201096725E+02    0.28781E-05   -0.10662E-05 12020   0.559E-02    0.300E-03
DAV:   5    -0.381201099136E+02   -0.24104E-06   -0.36116E-06 10824   0.251E-02    0.178E-03
DAV:   6    -0.381201099384E+02   -0.24860E-07   -0.61404E-07 12268   0.138E-02    0.109E-03
DAV:   7    -0.381201099369E+02    0.15457E-08   -0.10978E-07 11780   0.581E-03    0.450E-04
DAV:   8    -0.381201099358E+02    0.11282E-08   -0.30206E-08  7664   0.200E-03
  14 F= -.38120110E+02 E0= -.38107349E+02  d E =-.358697E-05
 curvature:   6.61 expect dE= 0.277E-03 dE for cont linesearch  0.158E-04
 ZBRENT: bracketing found
 ZBRENT: interpolating
 opt :   2.3772  next Energy=   -38.120114 (dE=-0.734E-05)
 bond charge predicted
       N       E                     dE             d eps       ncg     rms          rms(c)
DAV:   1    -0.381201248053E+02   -0.14868E-04   -0.56099E-03 10116   0.440E-01    0.365E-02
DAV:   2    -0.381201215747E+02    0.32307E-05   -0.20928E-04 11248   0.165E-01    0.206E-02
DAV:   3    -0.381201152413E+02    0.63333E-05   -0.24676E-05 13348   0.636E-02    0.898E-03
DAV:   4    -0.381201137044E+02    0.15369E-05   -0.50503E-06 11940   0.379E-02    0.205E-03
DAV:   5    -0.381201138061E+02   -0.10168E-06   -0.17160E-06 10800   0.173E-02    0.123E-03
DAV:   6    -0.381201138167E+02   -0.10664E-07   -0.28922E-07 12124   0.953E-03    0.748E-04
DAV:   7    -0.381201138215E+02   -0.47739E-08   -0.49796E-08 10236   0.396E-03
  15 F= -.38120114E+02 E0= -.38107358E+02  d E =-.747269E-05
 curvature:  -0.36 expect dE=-0.461E-05 dE for cont linesearch -0.567E-09
 trial: gam= 1.91950 g(F)=  0.931E-05 g(S)=  0.366E-05 ort = 0.129E-06 (trialstep = 0.161E+00)
 search vector abs. value=  0.522E-04
 bond charge predicted
       N       E                     dE             d eps       ncg     rms          rms(c)
DAV:   1    -0.381201157203E+02   -0.19036E-05   -0.26624E-04 10088   0.992E-02    0.803E-03
DAV:   2    -0.381201157027E+02    0.17547E-07   -0.12229E-05 11544   0.377E-02    0.438E-03
DAV:   3    -0.381201154211E+02    0.28168E-06   -0.11147E-06 13112   0.115E-02    0.218E-03
DAV:   4    -0.381201153109E+02    0.11021E-06   -0.20566E-07 12008   0.780E-03    0.520E-04
DAV:   5    -0.381201153123E+02   -0.14506E-08   -0.84530E-08 10624   0.380E-03
  16 F= -.38120115E+02 E0= -.38107355E+02  d E =-.149081E-05
 trial-energy change:   -0.000001  1 .order   -0.000001   -0.000002   -0.000001
 step:   0.2652(harm=  0.2652)  dis= 0.00013  next Energy=   -38.120116 (dE=-0.175E-05)
 bond charge predicted
       N       E                     dE             d eps       ncg     rms          rms(c)
DAV:   1    -0.381201157976E+02   -0.48679E-06   -0.11142E-04 10084   0.641E-02    0.521E-03
DAV:   2    -0.381201158074E+02   -0.97120E-08   -0.52083E-06 11560   0.243E-02    0.285E-03
DAV:   3    -0.381201156807E+02    0.12671E-06   -0.47415E-07 13084   0.750E-03    0.144E-03
DAV:   4    -0.381201156310E+02    0.49677E-07   -0.85276E-08 11592   0.492E-03    0.338E-04
DAV:   5    -0.381201156309E+02    0.65938E-10   -0.37515E-08  9104   0.242E-03
  17 F= -.38120116E+02 E0= -.38107352E+02  d E =-.180942E-05
 curvature:  -0.52 expect dE=-0.283E-05 dE for cont linesearch -0.147E-08
 trial: gam= 0.37956 g(F)=  0.419E-05 g(S)=  0.122E-05 ort = 0.383E-06 (trialstep = 0.182E+00)
 search vector abs. value=  0.132E-04
 bond charge predicted
       N       E                     dE             d eps       ncg     rms          rms(c)
DAV:   1    -0.381201171560E+02   -0.15251E-05   -0.83359E-05 10332   0.609E-02    0.637E-03
DAV:   2    -0.381201168295E+02    0.32649E-06   -0.53845E-06 11760   0.296E-02    0.301E-03
DAV:   3    -0.381201166920E+02    0.13750E-06   -0.46761E-07 13180   0.792E-03    0.144E-03
DAV:   4    -0.381201166423E+02    0.49777E-07   -0.73885E-08 11708   0.484E-03    0.418E-04
DAV:   5    -0.381201166340E+02    0.82796E-08   -0.34106E-08  8496   0.195E-03
  18 F= -.38120117E+02 E0= -.38107354E+02  d E =-.100308E-05
 ZBRENT: can't locate minimum, use default step
 trial-energy change:   -0.000001  1 .order   -0.000001   -0.000001   -0.000001
 step:   0.7275(harm=  1.2981)  dis= 0.00021  next Energy=   -38.120119 (dE=-0.360E-05)
 bond charge predicted
       N       E                     dE             d eps       ncg     rms          rms(c)
DAV:   1    -0.381201235021E+02   -0.68598E-05   -0.75032E-04 10336   0.183E-01    0.191E-02
DAV:   2    -0.381201203357E+02    0.31664E-05   -0.48383E-05 11724   0.889E-02    0.903E-03
DAV:   3    -0.381201193346E+02    0.10011E-05   -0.42078E-06 13144   0.238E-02    0.430E-03
DAV:   4    -0.381201189477E+02    0.38692E-06   -0.67979E-07 12904   0.146E-02    0.124E-03
DAV:   5    -0.381201189205E+02    0.27188E-07   -0.29723E-07 10700   0.584E-03    0.422E-04
DAV:   6    -0.381201189201E+02    0.36380E-09   -0.42184E-08  9620   0.308E-03
  19 F= -.38120119E+02 E0= -.38107357E+02  d E =-.328921E-05
 curvature:  -1.14 expect dE=-0.209E-05 dE for cont linesearch -0.660E-06
 ZBRENT: increasing intervall
 opt :   1.8189  next Energy=   -38.120120 (dE=-0.411E-05)
 bond charge predicted
       N       E                     dE             d eps       ncg     rms          rms(c)
DAV:   1    -0.381201384959E+02   -0.19575E-04   -0.30019E-03 10336   0.365E-01    0.381E-02
DAV:   2    -0.381201255959E+02    0.12900E-04   -0.19315E-04 11724   0.178E-01    0.180E-02
DAV:   3    -0.381201218432E+02    0.37527E-05   -0.16915E-05 13164   0.480E-02    0.859E-03
DAV:   4    -0.381201203602E+02    0.14830E-05   -0.27260E-06 12904   0.298E-02    0.248E-03
DAV:   5    -0.381201203013E+02    0.58892E-07   -0.11801E-06 10696   0.120E-02    0.849E-04
DAV:   6    -0.381201203050E+02   -0.36903E-08   -0.18442E-07 11896   0.638E-03    0.534E-04
DAV:   7    -0.381201203097E+02   -0.47926E-08   -0.21401E-08  6912   0.400E-03
  20 F= -.38120120E+02 E0= -.38107361E+02  d E =-.467884E-05
 curvature:  -1.42 expect dE=-0.715E-05 dE for cont linesearch -0.150E-06
 ZBRENT: bracketing found
 ZBRENT: interpolating
 opt :   1.4924  next Energy=   -38.120121 (dE=-0.487E-05)
 bond charge predicted
       N       E                     dE             d eps       ncg     rms          rms(c)
DAV:   1    -0.381201219221E+02   -0.16172E-05   -0.26799E-04 10332   0.109E-01    0.114E-02
DAV:   2    -0.381201206914E+02    0.12307E-05   -0.17394E-05 11740   0.532E-02    0.540E-03
DAV:   3    -0.381201204523E+02    0.23915E-06   -0.14874E-06 13120   0.140E-02    0.258E-03
DAV:   4    -0.381201203434E+02    0.10887E-06   -0.24009E-07 12884   0.848E-03    0.738E-04
DAV:   5    -0.381201203589E+02   -0.15473E-07   -0.10525E-07 10604   0.340E-03    0.248E-04
DAV:   6    -0.381201203604E+02   -0.14966E-08   -0.12434E-08  5596   0.175E-03
  21 F= -.38120120E+02 E0= -.38107361E+02  d E =-.472948E-05
 curvature:  -1.83 expect dE=-0.539E-05 dE for cont linesearch -0.261E-07
 trial: gam= 0.60999 g(F)=  0.267E-05 g(S)=  0.281E-06 ort = 0.434E-06 (trialstep = 0.444E+00)
 search vector abs. value=  0.840E-05
 bond charge predicted
       N       E                     dE             d eps       ncg     rms          rms(c)
DAV:   1    -0.381201215029E+02   -0.11440E-05   -0.32197E-04 10268   0.105E-01    0.670E-03
DAV:   2    -0.381201217047E+02   -0.20187E-06   -0.10224E-05 11312   0.321E-02    0.365E-03
DAV:   3    -0.381201215301E+02    0.17459E-06   -0.85829E-07 12516   0.102E-02    0.187E-03
DAV:   4    -0.381201214592E+02    0.70916E-07   -0.16816E-07 12692   0.633E-03    0.433E-04
DAV:   5    -0.381201214555E+02    0.37558E-08   -0.62023E-08 10484   0.298E-03
  22 F= -.38120121E+02 E0= -.38107360E+02  d E =-.109509E-05
 trial-energy change:   -0.000001  1 .order   -0.000001   -0.000001   -0.000001
 step:   0.8844(harm=  0.8844)  dis= 0.00025  next Energy=   -38.120122 (dE=-0.142E-05)
 bond charge predicted
       N       E                     dE             d eps       ncg     rms          rms(c)
DAV:   1    -0.381201219526E+02   -0.49341E-06   -0.31721E-04 10276   0.104E-01    0.666E-03
DAV:   2    -0.381201221642E+02   -0.21152E-06   -0.10088E-05 11336   0.319E-02    0.362E-03
DAV:   3    -0.381201219952E+02    0.16894E-06   -0.85165E-07 12564   0.102E-02    0.187E-03
DAV:   4    -0.381201219275E+02    0.67708E-07   -0.16567E-07 12816   0.634E-03    0.426E-04
DAV:   5    -0.381201219244E+02    0.31337E-08   -0.61295E-08 10496   0.299E-03
  23 F= -.38120122E+02 E0= -.38107358E+02  d E =-.156400E-05
 curvature:  -1.15 expect dE=-0.654E-05 dE for cont linesearch -0.481E-08
 trial: gam= 1.88563 g(F)=  0.415E-05 g(S)=  0.152E-05 ort = 0.187E-06 (trialstep = 0.123E+00)
 search vector abs. value=  0.362E-04
 bond charge predicted
       N       E                     dE             d eps       ncg     rms          rms(c)
DAV:   1    -0.381201225250E+02   -0.59752E-06   -0.10462E-04 10292   0.586E-02    0.360E-03
DAV:   2    -0.381201226200E+02   -0.95003E-07   -0.28582E-06 11896   0.171E-02    0.215E-03
DAV:   3    -0.381201226033E+02    0.16767E-07   -0.27676E-07 12900   0.596E-03    0.103E-03
DAV:   4    -0.381201225960E+02    0.72973E-08   -0.53142E-08 10908   0.252E-03
  24 F= -.38120123E+02 E0= -.38107360E+02  d E =-.671589E-06
 trial-energy change:   -0.000001  1 .order   -0.000001   -0.000001   -0.000000
 step:   0.2011(harm=  0.3667)  dis= 0.00013  next Energy=   -38.120123 (dE=-0.840E-06)
 bond charge predicted
       N       E                     dE             d eps       ncg     rms          rms(c)
DAV:   1    -0.381201228481E+02   -0.24487E-06   -0.41562E-05 10288   0.370E-02    0.229E-03
DAV:   2    -0.381201228836E+02   -0.35495E-07   -0.11282E-06 11968   0.108E-02    0.135E-03
DAV:   3    -0.381201228835E+02    0.15280E-09   -0.11063E-07 12440   0.368E-03    0.659E-04
DAV:   4    -0.381201228812E+02    0.23201E-08   -0.18145E-08  6680   0.167E-03
  25 F= -.38120123E+02 E0= -.38107361E+02  d E =-.956779E-06
 curvature:  -0.59 expect dE=-0.674E-06 dE for cont linesearch -0.120E-06
 ZBRENT: increasing intervall
 opt :   0.3565  next Energy=   -38.120123 (dE=-0.118E-05)
 bond charge predicted
       N       E                     dE             d eps       ncg     rms          rms(c)
DAV:   1    -0.381201230613E+02   -0.17781E-06   -0.16603E-04 10276   0.738E-02    0.455E-03
DAV:   2    -0.381201232020E+02   -0.14066E-06   -0.44849E-06 11820   0.216E-02    0.269E-03
DAV:   3    -0.381201231619E+02    0.40025E-07   -0.44734E-07 12872   0.738E-03    0.130E-03
DAV:   4    -0.381201231460E+02    0.15916E-07   -0.82621E-08 11412   0.338E-03    0.238E-04
DAV:   5    -0.381201231466E+02   -0.59663E-09   -0.23960E-08  6924   0.151E-03
  26 F= -.38120123E+02 E0= -.38107362E+02  d E =-.122222E-05
 curvature:  -1.09 expect dE=-0.118E-05 dE for cont linesearch -0.173E-09
 trial: gam= 0.28797 g(F)=  0.866E-06 g(S)=  0.211E-06 ort =-0.758E-07 (trialstep = 0.170E+00)
 search vector abs. value=  0.404E-05
 bond charge predicted
       N       E                     dE             d eps       ncg     rms          rms(c)
DAV:   1    -0.381201233287E+02   -0.18264E-06   -0.23172E-05 10108   0.265E-02    0.153E-03
DAV:   2    -0.381201233322E+02   -0.35207E-08   -0.47910E-07 12028   0.615E-03    0.916E-04
DAV:   3    -0.381201233259E+02    0.62901E-08   -0.39222E-08  9916   0.200E-03
  27 F= -.38120123E+02 E0= -.38107362E+02  d E =-.179274E-06
 ZBRENT: can't locate minimum, use default step
 trial-energy change:   -0.000000  1 .order   -0.000000   -0.000000   -0.000000
 step:   0.6799(harm=  0.6799)  dis= 0.00016  next Energy=   -38.120124 (dE=-0.725E-06)
 bond charge predicted
       N       E                     dE             d eps       ncg     rms          rms(c)
DAV:   1    -0.381201237763E+02   -0.44416E-06   -0.20794E-04 10064   0.795E-02    0.460E-03
DAV:   2    -0.381201238277E+02   -0.51383E-07   -0.42607E-06 11948   0.188E-02    0.275E-03
DAV:   3    -0.381201237366E+02    0.91110E-07   -0.40716E-07 13196   0.743E-03    0.122E-03
DAV:   4    -0.381201237126E+02    0.23962E-07   -0.93502E-08 11368   0.485E-03    0.292E-04
DAV:   5    -0.381201237137E+02   -0.10164E-08   -0.27971E-08  7292   0.235E-03
  28 F= -.38120124E+02 E0= -.38107360E+02  d E =-.567052E-06
 curvature:  -1.96 expect dE=-0.133E-05 dE for cont linesearch -0.100E-06
 ZBRENT: increasing intervall
 opt :   1.6997  next Energy=   -38.120124 (dE=-0.413E-06)
 bond charge predicted
       N       E                     dE             d eps       ncg     rms          rms(c)
DAV:   1    -0.381201240501E+02   -0.33749E-06   -0.83296E-04 10060   0.159E-01    0.917E-03
DAV:   2    -0.381201243156E+02   -0.26542E-06   -0.17349E-05 11844   0.380E-02    0.550E-03
DAV:   3    -0.381201239092E+02    0.40637E-06   -0.16229E-06 13208   0.145E-02    0.244E-03
DAV:   4    -0.381201238141E+02    0.95129E-07   -0.35983E-07 11556   0.904E-03    0.579E-04
DAV:   5    -0.381201238201E+02   -0.60204E-08   -0.11654E-07 10776   0.441E-03    0.384E-04
DAV:   6    -0.381201238191E+02    0.95406E-09   -0.16921E-08  6364   0.216E-03
  29 F= -.38120124E+02 E0= -.38107358E+02  d E =-.672509E-06
 curvature:   3.01 expect dE= 0.751E-05 dE for cont linesearch  0.146E-06
 ZBRENT: bracketing found
 ZBRENT: interpolating
 opt :   1.1967  next Energy=   -38.120124 (dE=-0.784E-06)
 bond charge predicted
       N       E                     dE             d eps       ncg     rms          rms(c)
DAV:   1    -0.381201239499E+02   -0.12983E-06   -0.20219E-04 10064   0.784E-02    0.451E-03
DAV:   2    -0.381201240269E+02   -0.76974E-07   -0.42026E-06 11828   0.186E-02    0.269E-03
DAV:   3    -0.381201238935E+02    0.13340E-06   -0.39401E-07 13348   0.668E-03    0.119E-03
DAV:   4    -0.381201238738E+02    0.19669E-07   -0.83632E-08 11336   0.414E-03    0.279E-04
DAV:   5    -0.381201238751E+02   -0.13097E-08   -0.25395E-08  6752   0.212E-03
  30 F= -.38120124E+02 E0= -.38107359E+02  d E =-.728510E-06
 curvature:  -2.29 expect dE=-0.280E-05 dE for cont linesearch -0.498E-08
 trial: gam= 0.96020 g(F)=  0.100E-05 g(S)=  0.217E-06 ort = 0.936E-07 (trialstep = 0.296E+00)
 search vector abs. value=  0.512E-05
 bond charge predicted
       N       E                     dE             d eps       ncg     rms          rms(c)
DAV:   1    -0.381201242676E+02   -0.39375E-06   -0.85657E-05 10024   0.510E-02    0.373E-03
DAV:   2    -0.381201242420E+02    0.25548E-07   -0.21303E-06 11596   0.157E-02    0.232E-03
DAV:   3    -0.381201241779E+02    0.64076E-07   -0.27265E-07 12608   0.894E-03    0.972E-04
DAV:   4    -0.381201241725E+02    0.54733E-08   -0.76448E-08 10792   0.559E-03
  31 F= -.38120124E+02 E0= -.38107360E+02  d E =-.297345E-06
 trial-energy change:   -0.000000  1 .order   -0.000000   -0.000000   -0.000000
 step:   0.4790(harm=  0.4790)  dis= 0.00013  next Energy=   -38.120124 (dE=-0.314E-06)
 bond charge predicted
       N       E                     dE             d eps       ncg     rms          rms(c)
DAV:   1    -0.381201242616E+02   -0.83628E-07   -0.32895E-05 10036   0.316E-02    0.233E-03
DAV:   2    -0.381201242554E+02    0.61937E-08   -0.82672E-07 11688   0.992E-03    0.145E-03
DAV:   3    -0.381201242359E+02    0.19466E-07   -0.10527E-07 11860   0.598E-03    0.619E-04
DAV:   4    -0.381201242348E+02    0.11446E-08   -0.29233E-08  7408   0.372E-03
  32 F= -.38120124E+02 E0= -.38107360E+02  d E =-.359643E-06
 curvature:  -0.94 expect dE=-0.997E-06 dE for cont linesearch -0.151E-10
 trial: gam= 0.93018 g(F)=  0.858E-06 g(S)=  0.206E-06 ort =-0.908E-08 (trialstep = 0.311E+00)
 search vector abs. value=  0.548E-05
 bond charge predicted
       N       E                     dE             d eps       ncg     rms          rms(c)
DAV:   1    -0.381201247160E+02   -0.48012E-06   -0.97923E-05 10060   0.563E-02    0.460E-03
DAV:   2    -0.381201246184E+02    0.97616E-07   -0.29637E-06 11568   0.196E-02    0.272E-03
DAV:   3    -0.381201244862E+02    0.13225E-06   -0.30524E-07 13112   0.814E-03    0.117E-03
DAV:   4    -0.381201244608E+02    0.25356E-07   -0.83838E-08 11104   0.551E-03    0.276E-04
DAV:   5    -0.381201244634E+02   -0.26216E-08   -0.29195E-08  7964   0.231E-03
  33 F= -.38120124E+02 E0= -.38107357E+02  d E =-.228666E-06
 trial-energy change:   -0.000000  1 .order   -0.000000   -0.000000   -0.000000
 step:   0.4476(harm=  0.4476)  dis= 0.00011  next Energy=   -38.120124 (dE=-0.236E-06)
 bond charge predicted
       N       E                     dE             d eps       ncg     rms          rms(c)
DAV:   1    -0.381201245510E+02   -0.90173E-07   -0.18987E-05 10084   0.247E-02    0.204E-03
DAV:   2    -0.381201245347E+02    0.16302E-07   -0.58182E-07 11608   0.826E-03    0.121E-03
DAV:   3    -0.381201245036E+02    0.31067E-07   -0.54537E-08 11032   0.331E-03    0.518E-04
DAV:   4    -0.381201244987E+02    0.49145E-08   -0.15035E-08  5832   0.221E-03
  34 F= -.38120124E+02 E0= -.38107356E+02  d E =-.263934E-06
 curvature:  -1.16 expect dE=-0.245E-06 dE for cont linesearch -0.240E-08
 trial: gam= 0.05532 g(F)=  0.194E-06 g(S)=  0.164E-07 ort = 0.106E-06 (trialstep = 0.338E+00)
 search vector abs. value=  0.239E-06
 bond charge predicted
       N       E                     dE             d eps       ncg     rms          rms(c)
DAV:   1    -0.381201245631E+02   -0.59455E-07   -0.54832E-06 10020   0.136E-02    0.814E-04
DAV:   2    -0.381201245641E+02   -0.98680E-09   -0.16186E-07 11444   0.428E-03    0.452E-04
DAV:   3    -0.381201245678E+02   -0.37530E-08   -0.12141E-08  5984   0.171E-03
  35 F= -.38120125E+02 E0= -.38107355E+02  d E =-.691098E-07
 ZBRENT: can't locate minimum, use default step
 trial-energy change:   -0.000000  1 .order   -0.000000   -0.000000   -0.000000
 step:   1.3529(harm=  2.1273)  dis= 0.00005  next Energy=   -38.120125 (dE=-0.230E-06)
 bond charge predicted
       N       E                     dE             d eps       ncg     rms          rms(c)
DAV:   1    -0.381201246840E+02   -0.11993E-06   -0.49268E-05  9996   0.407E-02    0.248E-03
DAV:   2    -0.381201247039E+02   -0.19878E-07   -0.14192E-06 11504   0.119E-02    0.137E-03
DAV:   3    -0.381201247063E+02   -0.24115E-08   -0.13302E-07 11688   0.410E-03    0.676E-04
DAV:   4    -0.381201247025E+02    0.37271E-08   -0.22857E-08  6860   0.255E-03
  36 F= -.38120125E+02 E0= -.38107352E+02  d E =-.203848E-06
 curvature:  -0.96 expect dE=-0.154E-06 dE for cont linesearch -0.188E-07
 trial: gam= 0.00000 g(F)=  0.499E-07 g(S)=  0.112E-06 ort = 0.687E-07 (trialstep = 0.541E+00)
 search vector abs. value=  0.161E-06
 bond charge predicted
       N       E                     dE             d eps       ncg     rms          rms(c)
DAV:   1    -0.381201250812E+02   -0.37495E-06   -0.84660E-06 12560   0.329E-02    0.418E-03
DAV:   2    -0.381201248160E+02    0.26521E-06   -0.16064E-06 12224   0.181E-02    0.160E-03
DAV:   3    -0.381201247487E+02    0.67280E-07   -0.13405E-07 14396   0.362E-03    0.744E-04
DAV:   4    -0.381201247170E+02    0.31702E-07   -0.10968E-08  5844   0.191E-03    0.212E-04
DAV:   5    -0.381201247093E+02    0.77575E-08   -0.12183E-08  5260   0.104E-03
  37 F= -.38120125E+02 E0= -.38107352E+02  d E =-.672571E-08
 trial-energy change:   -0.000000  1 .order   -0.000000   -0.000000    0.000000
 step:   0.4723(harm=  0.4723)  dis= 0.00001  next Energy=   -38.120125 (dE=-0.381E-07)
 bond charge predicted
       N       E                     dE             d eps       ncg     rms          rms(c)
DAV:   1    -0.381201247097E+02    0.73692E-08   -0.14765E-07 12396   0.436E-03    0.522E-04
DAV:   2    -0.381201247048E+02    0.49063E-08   -0.24137E-08  5940   0.240E-03
  38 F= -.38120125E+02 E0= -.38107352E+02  d E =-.220780E-08
 curvature:  -0.24 expect dE=-0.358E-07 dE for cont linesearch -0.124E-10
 trial: gam= 0.95684 g(F)=  0.129E-06 g(S)=  0.225E-07 ort =-0.291E-08 (trialstep = 0.290E+00)
 search vector abs. value=  0.294E-06
 reached required accuracy - stopping structural energy minimisation
 writing wavefunctions
Mon Jan  3 23:34:20 CST 2022
