Tue Jan  4 01:52:38 CST 2022
 running on   48 total cores
 distrk:  each k-point on   48 cores,    1 groups
 distr:  one band on   24 cores,    2 groups
 using from now: INCAR     
 vasp.5.3.5 31Mar14 (build Jan 11 2016 19:50:55) complex                        
  
 POSCAR found type information on POSCAR  Zn Ga N  O 
 POSCAR found :  4 types and       8 ions
 scaLAPACK will be used

 ----------------------------------------------------------------------------- 
|                                                                             |
|           W    W    AA    RRRRR   N    N  II  N    N   GGGG   !!!           |
|           W    W   A  A   R    R  NN   N  II  NN   N  G    G  !!!           |
|           W    W  A    A  R    R  N N  N  II  N N  N  G       !!!           |
|           W WW W  AAAAAA  RRRRR   N  N N  II  N  N N  G  GGG   !            |
|           WW  WW  A    A  R   R   N   NN  II  N   NN  G    G                |
|           W    W  A    A  R    R  N    N  II  N    N   GGGG   !!!           |
|                                                                             |
|      For optimal performance we recommend to set                            |
|        NCORE= 4 - approx SQRT( number of cores)                             |
|      NCORE specifies how many cores store one orbital (NPAR=cpu/NCORE).     |
|      This setting can  greatly improve the performance of VASP for DFT.     |
|      The default, NPAR=number of cores might be grossly inefficient         |
|      on modern multi-core architectures or massively parallel machines.     |
|      Do your own testing !!!!                                               |
|      Unfortunately you need to use the default for GW and RPA calculations. |
|      (for HF NCORE is supported but not extensively tested yet)             |
|                                                                             |
 ----------------------------------------------------------------------------- 

 LDA part: xc-table for Pade appr. of Perdew
 POSCAR, INCAR and KPOINTS ok, starting setup
 WARNING: small aliasing (wrap around) errors must be expected
 FFT: planning ...
 WAVECAR not read
 entering main loop
       N       E                     dE             d eps       ncg     rms          rms(c)
DAV:   1     0.898572663804E+03    0.89857E+03   -0.42393E+04 10284   0.325E+03
DAV:   2     0.144662635836E+03   -0.75391E+03   -0.72420E+03  9960   0.781E+02
DAV:   3    -0.297602484468E+02   -0.17442E+03   -0.16906E+03 11368   0.265E+02
DAV:   4    -0.450437433416E+02   -0.15283E+02   -0.15130E+02 12188   0.799E+01
DAV:   5    -0.455184220032E+02   -0.47468E+00   -0.47267E+00 12600   0.137E+01    0.160E+01
DAV:   6    -0.383202204683E+02    0.71982E+01   -0.22750E+01 19024   0.828E+01    0.746E+00
DAV:   7    -0.388905814956E+02   -0.57036E+00   -0.79364E+00 10740   0.190E+01    0.501E+00
DAV:   8    -0.388521869935E+02    0.38395E-01   -0.15233E+00 15660   0.113E+01    0.224E+00
DAV:   9    -0.387771576125E+02    0.75029E-01   -0.34683E-01 14628   0.741E+00    0.568E-01
DAV:  10    -0.387803857471E+02   -0.32281E-02   -0.71875E-02 11136   0.214E+00    0.262E-01
DAV:  11    -0.387813433863E+02   -0.95764E-03   -0.11981E-02 15228   0.129E+00    0.168E-01
DAV:  12    -0.387816477272E+02   -0.30434E-03   -0.23762E-03 12044   0.936E-01    0.471E-02
DAV:  13    -0.387817564347E+02   -0.10871E-03   -0.61958E-04 11976   0.304E-01    0.304E-02
DAV:  14    -0.387817849965E+02   -0.28562E-04   -0.83589E-05 10848   0.154E-01    0.112E-02
DAV:  15    -0.387818031144E+02   -0.18118E-04   -0.48281E-05 12540   0.962E-02    0.926E-03
DAV:  16    -0.387818052126E+02   -0.20982E-05   -0.13667E-05 12044   0.317E-02    0.405E-03
DAV:  17    -0.387818058711E+02   -0.65853E-06   -0.36226E-06 11580   0.199E-02    0.282E-03
DAV:  18    -0.387818058315E+02    0.39667E-07   -0.97549E-07 15148   0.153E-02    0.117E-03
DAV:  19    -0.387818057894E+02    0.42075E-07   -0.22390E-07 10764   0.755E-03    0.423E-04
DAV:  20    -0.387818057844E+02    0.49522E-08   -0.48277E-08 10868   0.294E-03
   1 F= -.38781806E+02 E0= -.38781806E+02  d E =-.387818E+02
 curvature:   0.00 expect dE= 0.000E+00 dE for cont linesearch  0.000E+00
 trial: gam= 0.00000 g(F)=  0.404E-04 g(S)=  0.911E-04 ort = 0.000E+00 (trialstep = 0.100E+01)
 search vector abs. value=  0.132E-03
 bond charge predicted
       N       E                     dE             d eps       ncg     rms          rms(c)
DAV:   1    -0.387822065572E+02   -0.40077E-03   -0.17719E-02 10660   0.101E+00    0.141E-01
DAV:   2    -0.387819733270E+02    0.23323E-03   -0.19949E-03 12256   0.568E-01    0.708E-02
DAV:   3    -0.387818998710E+02    0.73456E-04   -0.19300E-04 13496   0.196E-01    0.332E-02
DAV:   4    -0.387818788821E+02    0.20989E-04   -0.50934E-05 13632   0.107E-01    0.885E-03
DAV:   5    -0.387818787267E+02    0.15541E-06   -0.19123E-05 11000   0.505E-02    0.315E-03
DAV:   6    -0.387818788540E+02   -0.12728E-06   -0.31565E-06 11796   0.291E-02    0.212E-03
DAV:   7    -0.387818788570E+02   -0.30809E-08   -0.44356E-07 12100   0.168E-02    0.124E-03
DAV:   8    -0.387818788908E+02   -0.33762E-07   -0.19552E-07 12616   0.418E-03    0.365E-04
DAV:   9    -0.387818788958E+02   -0.50354E-08   -0.35496E-08 10012   0.289E-03
   2 F= -.38781879E+02 E0= -.38781879E+02  d E =-.731114E-04
 trial-energy change:   -0.000073  1 .order   -0.000074   -0.000132   -0.000016
 step:   1.1381(harm=  1.1344)  dis= 0.00080  next Energy=   -38.781880 (dE=-0.742E-04)
 bond charge predicted
       N       E                     dE             d eps       ncg     rms          rms(c)
DAV:   1    -0.387818862559E+02   -0.73651E-05   -0.33756E-04 10724   0.138E-01    0.195E-02
DAV:   2    -0.387818818277E+02    0.44282E-05   -0.37736E-05 12260   0.782E-02    0.977E-03
DAV:   3    -0.387818802732E+02    0.15545E-05   -0.36803E-06 13456   0.272E-02    0.458E-03
DAV:   4    -0.387818798299E+02    0.44327E-06   -0.97450E-07 13648   0.150E-02    0.122E-03
DAV:   5    -0.387818797991E+02    0.30821E-07   -0.36583E-07 11020   0.707E-03    0.437E-04
DAV:   6    -0.387818797974E+02    0.17626E-08   -0.60886E-08 10336   0.408E-03
   3 F= -.38781880E+02 E0= -.38781880E+02  d E =-.740129E-04
 curvature:  -0.57 expect dE=-0.543E-04 dE for cont linesearch -0.124E-07
 trial: gam= 0.74065 g(F)=  0.737E-04 g(S)=  0.221E-04 ort =-0.170E-05 (trialstep = 0.817E+00)
 search vector abs. value=  0.165E-03
 bond charge predicted
       N       E                     dE             d eps       ncg     rms          rms(c)
DAV:   1    -0.387821882351E+02   -0.30844E-03   -0.14218E-02 10204   0.922E-01    0.126E-01
DAV:   2    -0.387820067807E+02    0.18145E-03   -0.15404E-03 11416   0.534E-01    0.624E-02
DAV:   3    -0.387819523075E+02    0.54473E-04   -0.16340E-04 14008   0.164E-01    0.297E-02
DAV:   4    -0.387819353640E+02    0.16944E-04   -0.39429E-05 13488   0.947E-02    0.757E-03
DAV:   5    -0.387819353276E+02    0.36468E-07   -0.14650E-05 10784   0.369E-02    0.280E-03
DAV:   6    -0.387819354219E+02   -0.94291E-07   -0.18845E-06 13272   0.188E-02    0.187E-03
DAV:   7    -0.387819354311E+02   -0.92391E-08   -0.30200E-07 13068   0.140E-02    0.103E-03
DAV:   8    -0.387819354677E+02   -0.36644E-07   -0.11456E-07 12360   0.408E-03    0.367E-04
DAV:   9    -0.387819354742E+02   -0.64324E-08   -0.22235E-08  6852   0.236E-03
   4 F= -.38781935E+02 E0= -.38781935E+02  d E =-.556768E-04
 trial-energy change:   -0.000056  1 .order   -0.000057   -0.000077   -0.000036
 step:   1.9697(harm=  1.5401)  dis= 0.00199  next Energy=   -38.781958 (dE=-0.783E-04)
 bond charge predicted
       N       E                     dE             d eps       ncg     rms          rms(c)
DAV:   1    -0.387824476211E+02   -0.51215E-03   -0.28241E-02 10192   0.130E+00    0.178E-01
DAV:   2    -0.387820877668E+02    0.35985E-03   -0.30576E-03 11432   0.752E-01    0.879E-02
DAV:   3    -0.387819802322E+02    0.10753E-03   -0.32382E-04 14000   0.231E-01    0.418E-02
DAV:   4    -0.387819467980E+02    0.33434E-04   -0.78240E-05 13452   0.134E-01    0.106E-02
DAV:   5    -0.387819468269E+02   -0.28882E-07   -0.29135E-05 10780   0.520E-02    0.394E-03
DAV:   6    -0.387819470119E+02   -0.18498E-06   -0.37315E-06 13268   0.263E-02    0.262E-03
DAV:   7    -0.387819470218E+02   -0.99481E-08   -0.60672E-07 13148   0.198E-02    0.144E-03
DAV:   8    -0.387819470795E+02   -0.57670E-07   -0.22786E-07 12432   0.588E-03    0.516E-04
DAV:   9    -0.387819470898E+02   -0.10307E-07   -0.48865E-08 10100   0.323E-03    0.213E-04
DAV:  10    -0.387819470946E+02   -0.47503E-08   -0.12659E-08  6180   0.142E-03
   5 F= -.38781947E+02 E0= -.38781947E+02  d E =-.672972E-04
 curvature:  -0.87 expect dE=-0.118E-03 dE for cont linesearch -0.405E-05
 ZBRENT: interpolating
 opt :   1.5264  next Energy=   -38.781953 (dE=-0.734E-04)
 bond charge predicted
       N       E                     dE             d eps       ncg     rms          rms(c)
DAV:   1    -0.387820262994E+02   -0.79210E-04   -0.41750E-03 10196   0.498E-01    0.684E-02
DAV:   2    -0.387819726721E+02    0.53627E-04   -0.45178E-04 11440   0.289E-01    0.338E-02
DAV:   3    -0.387819575627E+02    0.15109E-04   -0.47968E-05 14020   0.892E-02    0.161E-02
DAV:   4    -0.387819528451E+02    0.47176E-05   -0.11585E-05 13492   0.515E-02    0.408E-03
DAV:   5    -0.387819529648E+02   -0.11967E-06   -0.43061E-06 10772   0.200E-02    0.151E-03
DAV:   6    -0.387819529908E+02   -0.25998E-07   -0.55351E-07 13272   0.101E-02    0.101E-03
DAV:   7    -0.387819529801E+02    0.10684E-07   -0.88225E-08 11444   0.758E-03    0.556E-04
DAV:   8    -0.387819529697E+02    0.10381E-07   -0.31215E-08  8240   0.229E-03    0.202E-04
DAV:   9    -0.387819529667E+02    0.30313E-08   -0.89089E-09  6148   0.148E-03
   6 F= -.38781953E+02 E0= -.38781953E+02  d E =-.731693E-04
 curvature:  -1.32 expect dE=-0.102E-03 dE for cont linesearch -0.281E-09
 trial: gam= 0.77558 g(F)=  0.289E-04 g(S)=  0.479E-04 ort = 0.187E-06 (trialstep = 0.898E+00)
 search vector abs. value=  0.177E-03
 bond charge predicted
       N       E                     dE             d eps       ncg     rms          rms(c)
DAV:   1    -0.387821737225E+02   -0.22075E-03   -0.19072E-02  9956   0.927E-01    0.112E-01
DAV:   2    -0.387820710665E+02    0.10266E-03   -0.12619E-03 11476   0.484E-01    0.648E-02
DAV:   3    -0.387820153812E+02    0.55685E-04   -0.15609E-04 13584   0.160E-01    0.279E-02
DAV:   4    -0.387820022855E+02    0.13096E-04   -0.42369E-05 12088   0.782E-02    0.492E-03
DAV:   5    -0.387820031881E+02   -0.90256E-06   -0.12209E-05 11088   0.355E-02    0.288E-03
DAV:   6    -0.387820032143E+02   -0.26234E-07   -0.15920E-06 12264   0.253E-02    0.197E-03
DAV:   7    -0.387820031909E+02    0.23460E-07   -0.27174E-07 12972   0.105E-02    0.784E-04
DAV:   8    -0.387820031844E+02    0.64597E-08   -0.80160E-08 11600   0.276E-03
   7 F= -.38782003E+02 E0= -.38782003E+02  d E =-.502177E-04
 trial-energy change:   -0.000050  1 .order   -0.000048   -0.000069   -0.000027
 step:   1.2842(harm=  1.4628)  dis= 0.00129  next Energy=   -38.782009 (dE=-0.561E-04)
 bond charge predicted
       N       E                     dE             d eps       ncg     rms          rms(c)
DAV:   1    -0.387820423418E+02   -0.39151E-04   -0.35265E-03  9968   0.399E-01    0.484E-02
DAV:   2    -0.387820233182E+02    0.19024E-04   -0.23426E-04 11468   0.209E-01    0.278E-02
DAV:   3    -0.387820133395E+02    0.99788E-05   -0.28978E-05 13592   0.687E-02    0.120E-02
DAV:   4    -0.387820110150E+02    0.23244E-05   -0.78347E-06 12104   0.335E-02    0.212E-03
DAV:   5    -0.387820111850E+02   -0.16998E-06   -0.22612E-06 11076   0.152E-02    0.124E-03
DAV:   6    -0.387820111841E+02    0.91995E-09   -0.29258E-07 12280   0.108E-02    0.847E-04
DAV:   7    -0.387820111750E+02    0.91195E-08   -0.47395E-08 10024   0.453E-03
   8 F= -.38782011E+02 E0= -.38782011E+02  d E =-.582083E-04
 curvature:  -1.51 expect dE=-0.457E-04 dE for cont linesearch -0.828E-06
 ZBRENT: extrapolating
 opt :   1.4754  next Energy=   -38.782012 (dE=-0.591E-04)
 bond charge predicted
       N       E                     dE             d eps       ncg     rms          rms(c)
DAV:   1    -0.387820197664E+02   -0.85823E-05   -0.86340E-04  9980   0.197E-01    0.240E-02
DAV:   2    -0.387820150560E+02    0.47105E-05   -0.57180E-05 11468   0.103E-01    0.138E-02
DAV:   3    -0.387820127357E+02    0.23203E-05   -0.71336E-06 13744   0.344E-02    0.594E-03
DAV:   4    -0.387820122130E+02    0.52267E-06   -0.19163E-06 12048   0.170E-02    0.106E-03
DAV:   5    -0.387820122561E+02   -0.43112E-07   -0.55837E-07 11096   0.782E-03    0.620E-04
DAV:   6    -0.387820122541E+02    0.20591E-08   -0.77448E-08 11004   0.554E-03
   9 F= -.38782012E+02 E0= -.38782012E+02  d E =-.592874E-04
 curvature:  -1.71 expect dE=-0.654E-04 dE for cont linesearch -0.158E-08
 trial: gam= 0.50362 g(F)=  0.312E-04 g(S)=  0.700E-05 ort =-0.404E-06 (trialstep = 0.101E+01)
 search vector abs. value=  0.826E-04
 bond charge predicted
       N       E                     dE             d eps       ncg     rms          rms(c)
DAV:   1    -0.387820849163E+02   -0.72660E-04   -0.15160E-02 10156   0.726E-01    0.622E-02
DAV:   2    -0.387820603193E+02    0.24597E-04   -0.48219E-04 11412   0.248E-01    0.349E-02
DAV:   3    -0.387820440202E+02    0.16299E-04   -0.56601E-05 13908   0.965E-02    0.162E-02
DAV:   4    -0.387820399532E+02    0.40670E-05   -0.13549E-05 12848   0.667E-02    0.384E-03
DAV:   5    -0.387820401526E+02   -0.19949E-06   -0.51093E-06 10860   0.300E-02    0.204E-03
DAV:   6    -0.387820402011E+02   -0.48489E-07   -0.80490E-07 12252   0.153E-02    0.117E-03
DAV:   7    -0.387820402122E+02   -0.11099E-07   -0.15500E-07 11736   0.736E-03    0.767E-04
DAV:   8    -0.387820402301E+02   -0.17835E-07   -0.48987E-08  9796   0.333E-03    0.162E-04
DAV:   9    -0.387820402336E+02   -0.35329E-08   -0.11772E-08  6164   0.109E-03
  10 F= -.38782040E+02 E0= -.38782040E+02  d E =-.279795E-04
 trial-energy change:   -0.000028  1 .order   -0.000026   -0.000038   -0.000014
 step:   1.3520(harm=  1.5653)  dis= 0.00070  next Energy=   -38.782043 (dE=-0.303E-04)
 bond charge predicted
       N       E                     dE             d eps       ncg     rms          rms(c)
DAV:   1    -0.387820484777E+02   -0.82476E-05   -0.16904E-03 10156   0.242E-01    0.208E-02
DAV:   2    -0.387820457767E+02    0.27010E-05   -0.53542E-05 11412   0.823E-02    0.116E-02
DAV:   3    -0.387820438578E+02    0.19188E-05   -0.62690E-06 13908   0.318E-02    0.538E-03
DAV:   4    -0.387820433979E+02    0.45989E-06   -0.14955E-06 12872   0.215E-02    0.128E-03
DAV:   5    -0.387820434157E+02   -0.17737E-07   -0.56398E-07 10884   0.989E-03    0.681E-04
DAV:   6    -0.387820434208E+02   -0.51868E-08   -0.86473E-08 11004   0.519E-03
  11 F= -.38782043E+02 E0= -.38782043E+02  d E =-.311668E-04
 curvature:  -1.45 expect dE=-0.227E-04 dE for cont linesearch -0.379E-06
 ZBRENT: increasing intervall
 opt :   2.0289  next Energy=   -38.782041 (dE=-0.284E-04)
 bond charge predicted
       N       E                     dE             d eps       ncg     rms          rms(c)
DAV:   1    -0.387820612675E+02   -0.17852E-04   -0.67605E-03 10156   0.485E-01    0.416E-02
DAV:   2    -0.387820504222E+02    0.10845E-04   -0.21517E-04 11436   0.166E-01    0.233E-02
DAV:   3    -0.387820430719E+02    0.73504E-05   -0.25299E-05 13852   0.660E-02    0.108E-02
DAV:   4    -0.387820412547E+02    0.18172E-05   -0.61096E-06 12792   0.461E-02    0.258E-03
DAV:   5    -0.387820413418E+02   -0.87134E-07   -0.23057E-06 10872   0.203E-02    0.136E-03
DAV:   6    -0.387820413654E+02   -0.23583E-07   -0.37053E-07 12248   0.102E-02    0.782E-04
DAV:   7    -0.387820413721E+02   -0.66593E-08   -0.68941E-08 10208   0.497E-03
  12 F= -.38782041E+02 E0= -.38782041E+02  d E =-.291180E-04
 curvature:  10.54 expect dE= 0.394E-03 dE for cont linesearch  0.181E-04
 ZBRENT: bracketing found
 ZBRENT: interpolating
 opt :   1.5422  next Energy=   -38.782044 (dE=-0.316E-04)
 bond charge predicted
       N       E                     dE             d eps       ncg     rms          rms(c)
DAV:   1    -0.387820540140E+02   -0.12649E-04   -0.34933E-03 10144   0.348E-01    0.298E-02
DAV:   2    -0.387820482611E+02    0.57529E-05   -0.11106E-04 11468   0.119E-01    0.167E-02
DAV:   3    -0.387820448352E+02    0.34259E-05   -0.12927E-05 13884   0.468E-02    0.775E-03
DAV:   4    -0.387820439331E+02    0.90207E-06   -0.31202E-06 12824   0.326E-02    0.184E-03
DAV:   5    -0.387820439923E+02   -0.59239E-07   -0.11723E-06 10884   0.145E-02    0.969E-04
DAV:   6    -0.387820440030E+02   -0.10663E-07   -0.18736E-07 12136   0.731E-03    0.557E-04
DAV:   7    -0.387820440004E+02    0.25589E-08   -0.33365E-08  8348   0.353E-03
  13 F= -.38782044E+02 E0= -.38782044E+02  d E =-.317464E-04
 curvature:  -0.26 expect dE=-0.511E-05 dE for cont linesearch -0.197E-08
 trial: gam= 0.50885 g(F)=  0.176E-04 g(S)=  0.220E-05 ort = 0.794E-06 (trialstep = 0.112E+01)
 search vector abs. value=  0.420E-04
 bond charge predicted
       N       E                     dE             d eps       ncg     rms          rms(c)
DAV:   1    -0.387820691949E+02   -0.25192E-04   -0.97536E-03 10056   0.558E-01    0.380E-02
DAV:   2    -0.387820674899E+02    0.17050E-05   -0.22281E-04 11508   0.148E-01    0.226E-02
DAV:   3    -0.387820590711E+02    0.84188E-05   -0.26173E-05 13116   0.677E-02    0.853E-03
DAV:   4    -0.387820583051E+02    0.76605E-06   -0.71920E-06 11408   0.438E-02    0.199E-03
DAV:   5    -0.387820584435E+02   -0.13844E-06   -0.20599E-06 11224   0.230E-02    0.148E-03
DAV:   6    -0.387820584578E+02   -0.14257E-07   -0.42909E-07 12404   0.124E-02    0.806E-04
DAV:   7    -0.387820584581E+02   -0.35607E-09   -0.99079E-08 11456   0.429E-03
  14 F= -.38782058E+02 E0= -.38782058E+02  d E =-.144577E-04
 trial-energy change:   -0.000014  1 .order   -0.000014   -0.000023   -0.000006
 step:   1.5148(harm=  1.5336)  dis= 0.00083  next Energy=   -38.782060 (dE=-0.155E-04)
 bond charge predicted
       N       E                     dE             d eps       ncg     rms          rms(c)
DAV:   1    -0.387820610765E+02   -0.26187E-05   -0.12187E-03 10056   0.197E-01    0.134E-02
DAV:   2    -0.387820608460E+02    0.23050E-06   -0.27822E-05 11500   0.518E-02    0.798E-03
DAV:   3    -0.387820598387E+02    0.10073E-05   -0.33005E-06 13228   0.222E-02    0.301E-03
DAV:   4    -0.387820597390E+02    0.99674E-07   -0.86991E-07 11392   0.141E-02    0.702E-04
DAV:   5    -0.387820597545E+02   -0.15453E-07   -0.23190E-07 11208   0.778E-03    0.517E-04
DAV:   6    -0.387820597544E+02    0.54115E-10   -0.46626E-08  9828   0.420E-03
  15 F= -.38782060E+02 E0= -.38782060E+02  d E =-.157540E-04
 curvature:  -1.59 expect dE=-0.206E-04 dE for cont linesearch -0.451E-08
 trial: gam= 0.64421 g(F)=  0.122E-04 g(S)=  0.721E-06 ort = 0.345E-06 (trialstep = 0.120E+01)
 search vector abs. value=  0.308E-04
 bond charge predicted
       N       E                     dE             d eps       ncg     rms          rms(c)
DAV:   1    -0.387820719753E+02   -0.12221E-04   -0.88931E-03 10000   0.524E-01    0.286E-02
DAV:   2    -0.387820748276E+02   -0.28523E-05   -0.17219E-04 11216   0.124E-01    0.164E-02
DAV:   3    -0.387820715242E+02    0.33034E-05   -0.16509E-05 13528   0.431E-02    0.761E-03
DAV:   4    -0.387820707127E+02    0.81150E-06   -0.38482E-06 12316   0.229E-02    0.205E-03
DAV:   5    -0.387820707269E+02   -0.14265E-07   -0.10901E-06 10776   0.952E-03    0.909E-04
DAV:   6    -0.387820707342E+02   -0.72055E-08   -0.13060E-07 13256   0.432E-03    0.596E-04
DAV:   7    -0.387820707354E+02   -0.12224E-08   -0.20252E-08  6760   0.253E-03
  16 F= -.38782071E+02 E0= -.38782071E+02  d E =-.109809E-04
 trial-energy change:   -0.000011  1 .order   -0.000011   -0.000016   -0.000006
 step:   1.8093(harm=  1.9004)  dis= 0.00060  next Energy=   -38.782072 (dE=-0.125E-04)
 bond charge predicted
       N       E                     dE             d eps       ncg     rms          rms(c)
DAV:   1    -0.387820728830E+02   -0.21489E-05   -0.23114E-03  9996   0.267E-01    0.146E-02
DAV:   2    -0.387820736060E+02   -0.72297E-06   -0.44689E-05 11240   0.632E-02    0.835E-03
DAV:   3    -0.387820726925E+02    0.91345E-06   -0.43182E-06 13556   0.218E-02    0.389E-03
DAV:   4    -0.387820724795E+02    0.21300E-06   -0.10114E-06 12468   0.119E-02    0.106E-03
DAV:   5    -0.387820724742E+02    0.53678E-08   -0.27155E-07 10768   0.554E-03    0.466E-04
DAV:   6    -0.387820724770E+02   -0.28235E-08   -0.41265E-08  9628   0.292E-03
  17 F= -.38782072E+02 E0= -.38782072E+02  d E =-.127225E-04
 curvature:  -2.18 expect dE=-0.160E-04 dE for cont linesearch -0.234E-07
 trial: gam= 0.56327 g(F)=  0.563E-05 g(S)=  0.169E-05 ort = 0.575E-06 (trialstep = 0.132E+01)
 search vector abs. value=  0.177E-04
 bond charge predicted
       N       E                     dE             d eps       ncg     rms          rms(c)
DAV:   1    -0.387820728541E+02   -0.37997E-06   -0.66747E-03  9856   0.438E-01    0.232E-02
DAV:   2    -0.387820807050E+02   -0.78508E-05   -0.15730E-04 11848   0.113E-01    0.137E-02
DAV:   3    -0.387820778437E+02    0.28613E-05   -0.11060E-05 11972   0.560E-02    0.668E-03
DAV:   4    -0.387820772285E+02    0.61515E-06   -0.34673E-06 14828   0.496E-02    0.156E-03
DAV:   5    -0.387820773149E+02   -0.86441E-07   -0.12280E-06 10724   0.154E-02    0.949E-04
DAV:   6    -0.387820773262E+02   -0.11270E-07   -0.22478E-07 12128   0.458E-03    0.495E-04
DAV:   7    -0.387820773266E+02   -0.37016E-09   -0.17029E-08  6328   0.365E-03
  18 F= -.38782077E+02 E0= -.38782077E+02  d E =-.484959E-05
 trial-energy change:   -0.000005  1 .order   -0.000005   -0.000010    0.000001
 step:   1.2261(harm=  1.2143)  dis= 0.00041  next Energy=   -38.782077 (dE=-0.488E-05)
 bond charge predicted
       N       E                     dE             d eps       ncg     rms          rms(c)
DAV:   1    -0.387820773185E+02    0.76775E-08   -0.33917E-05  9912   0.313E-02    0.167E-03
DAV:   2    -0.387820773590E+02   -0.40484E-07   -0.79906E-07 11968   0.831E-03    0.968E-04
DAV:   3    -0.387820773431E+02    0.15938E-07   -0.54849E-08 11080   0.461E-03    0.483E-04
DAV:   4    -0.387820773402E+02    0.28717E-08   -0.13362E-08  5904   0.348E-03
  19 F= -.38782077E+02 E0= -.38782077E+02  d E =-.486322E-05
 curvature:  -1.39 expect dE=-0.437E-05 dE for cont linesearch -0.172E-10
 trial: gam= 0.49909 g(F)=  0.267E-05 g(S)=  0.472E-06 ort = 0.148E-07 (trialstep = 0.130E+01)
 search vector abs. value=  0.757E-05
 bond charge predicted
       N       E                     dE             d eps       ncg     rms          rms(c)
DAV:   1    -0.387820797794E+02   -0.24363E-05   -0.27166E-03  9856   0.282E-01    0.164E-02
DAV:   2    -0.387820813248E+02   -0.15453E-05   -0.57505E-05 12484   0.785E-02    0.968E-03
DAV:   3    -0.387820802837E+02    0.10411E-05   -0.49025E-06 11600   0.330E-02    0.455E-03
DAV:   4    -0.387820799733E+02    0.31032E-06   -0.13430E-06 12584   0.221E-02    0.863E-04
DAV:   5    -0.387820800187E+02   -0.45360E-07   -0.49935E-07 11060   0.811E-03    0.553E-04
DAV:   6    -0.387820800171E+02    0.16471E-08   -0.88087E-08  8372   0.503E-03
  20 F= -.38782080E+02 E0= -.38782080E+02  d E =-.267685E-05
 trial-energy change:   -0.000003  1 .order   -0.000003   -0.000004   -0.000001
 step:   1.5841(harm=  1.6884)  dis= 0.00029  next Energy=   -38.782080 (dE=-0.278E-05)
 bond charge predicted
       N       E                     dE             d eps       ncg     rms          rms(c)
DAV:   1    -0.387820801736E+02   -0.15486E-06   -0.12845E-04  9868   0.617E-02    0.359E-03
DAV:   2    -0.387820802486E+02   -0.75090E-07   -0.28056E-06 12532   0.181E-02    0.213E-03
DAV:   3    -0.387820802137E+02    0.34906E-07   -0.24571E-07 11668   0.866E-03    0.992E-04
DAV:   4    -0.387820802015E+02    0.12196E-07   -0.71086E-08 11044   0.517E-03    0.194E-04
DAV:   5    -0.387820802046E+02   -0.31041E-08   -0.28116E-08  7840   0.208E-03
  21 F= -.38782080E+02 E0= -.38782080E+02  d E =-.286445E-05
 curvature:  -1.88 expect dE=-0.323E-05 dE for cont linesearch -0.290E-07
 trial: gam= 0.41501 g(F)=  0.124E-05 g(S)=  0.476E-06 ort = 0.341E-06 (trialstep = 0.136E+01)
 search vector abs. value=  0.330E-05
 bond charge predicted
       N       E                     dE             d eps       ncg     rms          rms(c)
DAV:   1    -0.387820811350E+02   -0.93344E-06   -0.13371E-03 10608   0.207E-01    0.134E-02
DAV:   2    -0.387820824078E+02   -0.12729E-05   -0.45305E-05 11648   0.679E-02    0.745E-03
DAV:   3    -0.387820818457E+02    0.56212E-06   -0.37946E-06 13068   0.268E-02    0.376E-03
DAV:   4    -0.387820815852E+02    0.26050E-06   -0.73605E-07 12072   0.162E-02    0.126E-03
DAV:   5    -0.387820815659E+02    0.19318E-07   -0.26146E-07 10832   0.641E-03    0.435E-04
DAV:   6    -0.387820815672E+02   -0.12883E-08   -0.48686E-08  9972   0.342E-03
  22 F= -.38782082E+02 E0= -.38782082E+02  d E =-.136255E-05
 trial-energy change:   -0.000001  1 .order   -0.000001   -0.000003   -0.000000
 step:   1.4126(harm=  1.4193)  dis= 0.00018  next Energy=   -38.782082 (dE=-0.136E-05)
 bond charge predicted
       N       E                     dE             d eps       ncg     rms          rms(c)
DAV:   1    -0.387820815806E+02   -0.14741E-07   -0.21928E-06 10988   0.889E-03    0.595E-04
DAV:   2    -0.387820815868E+02   -0.61068E-08   -0.85451E-08 11288   0.350E-03
  23 F= -.38782082E+02 E0= -.38782082E+02  d E =-.138211E-05
 curvature:  -1.25 expect dE=-0.235E-05 dE for cont linesearch -0.152E-08
 trial: gam= 1.18976 g(F)=  0.960E-06 g(S)=  0.925E-06 ort = 0.634E-07 (trialstep = 0.674E+00)
 search vector abs. value=  0.671E-05
 bond charge predicted
       N       E                     dE             d eps       ncg     rms          rms(c)
DAV:   1    -0.387820832629E+02   -0.16822E-05   -0.64454E-04  9932   0.158E-01    0.136E-02
DAV:   2    -0.387820829221E+02    0.34080E-06   -0.34659E-05 11608   0.733E-02    0.634E-03
DAV:   3    -0.387820826618E+02    0.26023E-06   -0.29236E-06 12200   0.224E-02    0.332E-03
DAV:   4    -0.387820825022E+02    0.15961E-06   -0.56445E-07 12944   0.126E-02    0.921E-04
DAV:   5    -0.387820825255E+02   -0.23270E-07   -0.20256E-07 10780   0.483E-03    0.347E-04
DAV:   6    -0.387820825270E+02   -0.14966E-08   -0.37342E-08  8464   0.266E-03
  24 F= -.38782083E+02 E0= -.38782083E+02  d E =-.940235E-06
 trial-energy change:   -0.000001  1 .order   -0.000001   -0.000001   -0.000001
 step:   1.1438(harm=  1.1438)  dis= 0.00019  next Energy=   -38.782083 (dE=-0.112E-05)
 bond charge predicted
       N       E                     dE             d eps       ncg     rms          rms(c)
DAV:   1    -0.387820831539E+02   -0.62836E-06   -0.31394E-04 10004   0.110E-01    0.947E-03
DAV:   2    -0.387820829786E+02    0.17525E-06   -0.16920E-05 11584   0.512E-02    0.442E-03
DAV:   3    -0.387820828735E+02    0.10508E-06   -0.14199E-06 12252   0.158E-02    0.231E-03
DAV:   4    -0.387820828052E+02    0.68323E-07   -0.27135E-07 12872   0.876E-03    0.637E-04
DAV:   5    -0.387820828210E+02   -0.15832E-07   -0.97804E-08 10736   0.347E-03    0.237E-04
DAV:   6    -0.387820828219E+02   -0.82673E-09   -0.16913E-08  6232   0.201E-03
  25 F= -.38782083E+02 E0= -.38782083E+02  d E =-.123510E-05
 curvature:  -1.96 expect dE=-0.159E-05 dE for cont linesearch -0.143E-07
 trial: gam= 0.28037 g(F)=  0.678E-06 g(S)=  0.133E-06 ort = 0.221E-06 (trialstep = 0.768E+00)
 search vector abs. value=  0.146E-05
 bond charge predicted
       N       E                     dE             d eps       ncg     rms          rms(c)
DAV:   1    -0.387820829520E+02   -0.13099E-06   -0.19393E-04  9952   0.762E-02    0.357E-03
DAV:   2    -0.387820833801E+02   -0.42804E-06   -0.59115E-06 10840   0.170E-02    0.198E-03
DAV:   3    -0.387820833291E+02    0.50944E-07   -0.21902E-07 13612   0.452E-03    0.105E-03
DAV:   4    -0.387820833110E+02    0.18078E-07   -0.65949E-08 10796   0.383E-03    0.223E-04
DAV:   5    -0.387820833113E+02   -0.25329E-09   -0.18976E-08  7084   0.242E-03
  26 F= -.38782083E+02 E0= -.38782083E+02  d E =-.489436E-06
 trial-energy change:   -0.000000  1 .order   -0.000000   -0.000001   -0.000000
 step:   1.4106(harm=  1.4106)  dis= 0.00012  next Energy=   -38.782083 (dE=-0.616E-06)
 bond charge predicted
       N       E                     dE             d eps       ncg     rms          rms(c)
DAV:   1    -0.387820831922E+02    0.11888E-06   -0.13607E-04  9948   0.638E-02    0.301E-03
DAV:   2    -0.387820834932E+02   -0.30109E-06   -0.41605E-06 10864   0.143E-02    0.164E-03
DAV:   3    -0.387820834585E+02    0.34750E-07   -0.16069E-07 13764   0.400E-03    0.902E-04
DAV:   4    -0.387820834468E+02    0.11701E-07   -0.43708E-08  9656   0.419E-03    0.208E-04
DAV:   5    -0.387820834471E+02   -0.27649E-09   -0.14829E-08  6080   0.254E-03
  27 F= -.38782083E+02 E0= -.38782083E+02  d E =-.625218E-06
 curvature:  -1.18 expect dE=-0.448E-06 dE for cont linesearch -0.695E-09
 trial: gam= 0.58237 g(F)=  0.273E-06 g(S)=  0.106E-06 ort = 0.294E-07 (trialstep = 0.896E+00)
 search vector abs. value=  0.910E-06
 bond charge predicted
       N       E                     dE             d eps       ncg     rms          rms(c)
DAV:   1    -0.387820833930E+02    0.53811E-07   -0.16847E-04  9860   0.684E-02    0.366E-03
DAV:   2    -0.387820837447E+02   -0.35171E-06   -0.54040E-06 10844   0.182E-02    0.196E-03
DAV:   3    -0.387820837311E+02    0.13562E-07   -0.26722E-07 12832   0.559E-03    0.109E-03
DAV:   4    -0.387820837119E+02    0.19187E-07   -0.63352E-08 11016   0.414E-03    0.271E-04
DAV:   5    -0.387820837173E+02   -0.53415E-08   -0.22237E-08  7616   0.197E-03
  28 F= -.38782084E+02 E0= -.38782084E+02  d E =-.270216E-06
 trial-energy change:   -0.000000  1 .order   -0.000000   -0.000000   -0.000000
 step:   2.0446(harm=  2.0446)  dis= 0.00014  next Energy=   -38.782084 (dE=-0.405E-06)
 bond charge predicted
       N       E                     dE             d eps       ncg     rms          rms(c)
DAV:   1    -0.387820833138E+02    0.39814E-06   -0.27658E-04  9860   0.878E-02    0.469E-03
DAV:   2    -0.387820839011E+02   -0.58732E-06   -0.89140E-06 10844   0.234E-02    0.252E-03
DAV:   3    -0.387820838718E+02    0.29350E-07   -0.44182E-07 12896   0.704E-03    0.140E-03
DAV:   4    -0.387820838392E+02    0.32551E-07   -0.10260E-07 12288   0.504E-03    0.344E-04
DAV:   5    -0.387820838464E+02   -0.71350E-08   -0.36854E-08  9692   0.240E-03
  29 F= -.38782084E+02 E0= -.38782084E+02  d E =-.399285E-06
 curvature:  -2.35 expect dE=-0.787E-06 dE for cont linesearch -0.253E-09
 trial: gam= 0.80801 g(F)=  0.271E-06 g(S)=  0.644E-07 ort = 0.990E-08 (trialstep = 0.108E+01)
 search vector abs. value=  0.945E-06
 bond charge predicted
       N       E                     dE             d eps       ncg     rms          rms(c)
DAV:   1    -0.387820838781E+02   -0.38835E-07   -0.26551E-04 10088   0.893E-02    0.591E-03
DAV:   2    -0.387820842409E+02   -0.36285E-06   -0.10227E-05 10912   0.297E-02    0.320E-03
DAV:   3    -0.387820841063E+02    0.13456E-06   -0.62303E-07 12832   0.102E-02    0.159E-03
DAV:   4    -0.387820840430E+02    0.63315E-07   -0.13472E-07 12040   0.602E-03    0.537E-04
DAV:   5    -0.387820840321E+02    0.10946E-07   -0.46771E-08 10676   0.323E-03    0.182E-04
DAV:   6    -0.387820840302E+02    0.18695E-08   -0.89736E-09  6084   0.151E-03
  30 F= -.38782084E+02 E0= -.38782084E+02  d E =-.183859E-06
 trial-energy change:   -0.000000  1 .order   -0.000000   -0.000000   -0.000000
 step:   1.2559(harm=  1.2559)  dis= 0.00009  next Energy=   -38.782084 (dE=-0.215E-06)
 bond charge predicted
       N       E                     dE             d eps       ncg     rms          rms(c)
DAV:   1    -0.387820840406E+02   -0.85020E-08   -0.67345E-06 10240   0.144E-02    0.947E-04
DAV:   2    -0.387820840507E+02   -0.10105E-07   -0.26206E-07 10976   0.506E-03    0.516E-04
DAV:   3    -0.387820840404E+02    0.10284E-07   -0.13888E-08  6560   0.201E-03    0.257E-04
DAV:   4    -0.387820840352E+02    0.52128E-08   -0.52057E-09  5640   0.142E-03
  31 F= -.38782084E+02 E0= -.38782084E+02  d E =-.188839E-06
 curvature:  -1.73 expect dE=-0.352E-06 dE for cont linesearch -0.184E-08
 trial: gam= 0.59422 g(F)=  0.121E-06 g(S)=  0.821E-07 ort = 0.317E-07 (trialstep = 0.112E+01)
 search vector abs. value=  0.575E-06
 bond charge predicted
       N       E                     dE             d eps       ncg     rms          rms(c)
DAV:   1    -0.387820840658E+02   -0.25358E-07   -0.17149E-04 10804   0.804E-02    0.620E-03
DAV:   2    -0.387820841486E+02   -0.82802E-07   -0.92814E-06 11128   0.341E-02    0.268E-03
DAV:   3    -0.387820841640E+02   -0.15408E-07   -0.62435E-07 13148   0.923E-03    0.131E-03
DAV:   4    -0.387820841609E+02    0.30491E-08   -0.10180E-07 12116   0.397E-03    0.482E-04
DAV:   5    -0.387820841754E+02   -0.14442E-07   -0.36453E-08  9760   0.156E-03    0.157E-04
DAV:   6    -0.387820841771E+02   -0.17099E-08   -0.42363E-09  5716   0.812E-04
  32 F= -.38782084E+02 E0= -.38782084E+02  d E =-.141883E-06
 trial-energy change:   -0.000000  1 .order   -0.000000   -0.000000   -0.000000
 step:   1.3067(harm=  1.3067)  dis= 0.00007  next Energy=   -38.782084 (dE=-0.145E-06)
 bond charge predicted
       N       E                     dE             d eps       ncg     rms          rms(c)
DAV:   1    -0.387820841718E+02    0.35557E-08   -0.48951E-06 10824   0.137E-02    0.106E-03
DAV:   2    -0.387820841700E+02    0.18290E-08   -0.26688E-07 11408   0.577E-03    0.456E-04
DAV:   3    -0.387820841778E+02   -0.78567E-08   -0.15402E-08  6780   0.163E-03
  33 F= -.38782084E+02 E0= -.38782084E+02  d E =-.142645E-06
 curvature:  -1.69 expect dE=-0.253E-06 dE for cont linesearch -0.267E-09
 trial: gam= 0.67920 g(F)=  0.102E-06 g(S)=  0.477E-07 ort = 0.953E-08 (trialstep = 0.116E+01)
 search vector abs. value=  0.428E-06
 bond charge predicted
       N       E                     dE             d eps       ncg     rms          rms(c)
DAV:   1    -0.387820839611E+02    0.20889E-06   -0.13715E-04  9856   0.625E-02    0.283E-03
DAV:   2    -0.387820843290E+02   -0.36791E-06   -0.45660E-06 11368   0.176E-02    0.147E-03
DAV:   3    -0.387820843061E+02    0.22888E-07   -0.25957E-07 12304   0.583E-03    0.918E-04
DAV:   4    -0.387820842950E+02    0.11125E-07   -0.39477E-08  9768   0.342E-03    0.352E-04
DAV:   5    -0.387820842924E+02    0.25439E-08   -0.16556E-08  6704   0.157E-03
  34 F= -.38782084E+02 E0= -.38782084E+02  d E =-.114606E-06
 trial-energy change:   -0.000000  1 .order   -0.000000   -0.000000    0.000000
 step:   1.1433(harm=  1.1433)  dis= 0.00005  next Energy=   -38.782084 (dE=-0.891E-07)
 bond charge predicted
       N       E                     dE             d eps       ncg     rms          rms(c)
DAV:   1    -0.387820842924E+02    0.26012E-08   -0.19791E-08  7756   0.126E-03    0.880E-05
DAV:   2    -0.387820842924E+02   -0.45475E-10   -0.27778E-09  5668   0.127E-03
  35 F= -.38782084E+02 E0= -.38782084E+02  d E =-.114594E-06
 curvature:  -1.57 expect dE=-0.156E-06 dE for cont linesearch -0.119E-08
 trial: gam= 0.79640 g(F)=  0.793E-07 g(S)=  0.199E-07 ort = 0.180E-07 (trialstep = 0.115E+01)
 search vector abs. value=  0.399E-06
 bond charge predicted
       N       E                     dE             d eps       ncg     rms          rms(c)
DAV:   1    -0.387820841246E+02    0.16779E-06   -0.12686E-04  9856   0.590E-02    0.286E-03
DAV:   2    -0.387820843605E+02   -0.23589E-06   -0.35606E-06 11040   0.143E-02    0.152E-03
DAV:   3    -0.387820843581E+02    0.23883E-08   -0.15977E-07 12492   0.546E-03    0.842E-04
DAV:   4    -0.387820843484E+02    0.96779E-08   -0.42533E-08  9908   0.336E-03
  36 F= -.38782084E+02 E0= -.38782084E+02  d E =-.559853E-07
 trial-energy change:   -0.000000  1 .order   -0.000000   -0.000000   -0.000000
 step:   1.1793(harm=  1.1793)  dis= 0.00004  next Energy=   -38.782084 (dE=-0.670E-07)
 bond charge predicted
       N       E                     dE             d eps       ncg     rms          rms(c)
DAV:   1    -0.387820843531E+02    0.49636E-08   -0.75574E-08  9560   0.242E-03    0.147E-04
DAV:   2    -0.387820843535E+02   -0.37153E-09   -0.52657E-09  5644   0.964E-04
  37 F= -.38782084E+02 E0= -.38782084E+02  d E =-.610712E-07
 curvature:  -2.07 expect dE=-0.164E-06 dE for cont linesearch -0.522E-09
 trial: gam= 0.52461 g(F)=  0.760E-07 g(S)=  0.301E-08 ort =-0.100E-07 (trialstep = 0.116E+01)
 search vector abs. value=  0.178E-06
 reached required accuracy - stopping structural energy minimisation
 writing wavefunctions
Tue Jan  4 02:00:56 CST 2022
