Mon Jan  3 23:33:09 CST 2022
 running on   48 total cores
 distrk:  each k-point on   48 cores,    1 groups
 distr:  one band on   24 cores,    2 groups
 using from now: INCAR     
 vasp.5.3.5 31Mar14 (build Jan 11 2016 19:50:55) complex                        
  
 POSCAR found type information on POSCAR  Zn Ga N  O 
 POSCAR found :  4 types and       8 ions
 scaLAPACK will be used

 ----------------------------------------------------------------------------- 
|                                                                             |
|           W    W    AA    RRRRR   N    N  II  N    N   GGGG   !!!           |
|           W    W   A  A   R    R  NN   N  II  NN   N  G    G  !!!           |
|           W    W  A    A  R    R  N N  N  II  N N  N  G       !!!           |
|           W WW W  AAAAAA  RRRRR   N  N N  II  N  N N  G  GGG   !            |
|           WW  WW  A    A  R   R   N   NN  II  N   NN  G    G                |
|           W    W  A    A  R    R  N    N  II  N    N   GGGG   !!!           |
|                                                                             |
|      For optimal performance we recommend to set                            |
|        NCORE= 4 - approx SQRT( number of cores)                             |
|      NCORE specifies how many cores store one orbital (NPAR=cpu/NCORE).     |
|      This setting can  greatly improve the performance of VASP for DFT.     |
|      The default, NPAR=number of cores might be grossly inefficient         |
|      on modern multi-core architectures or massively parallel machines.     |
|      Do your own testing !!!!                                               |
|      Unfortunately you need to use the default for GW and RPA calculations. |
|      (for HF NCORE is supported but not extensively tested yet)             |
|                                                                             |
 ----------------------------------------------------------------------------- 

 LDA part: xc-table for Pade appr. of Perdew
 POSCAR, INCAR and KPOINTS ok, starting setup
 WARNING: small aliasing (wrap around) errors must be expected
 FFT: planning ...
 WAVECAR not read
 entering main loop
       N       E                     dE             d eps       ncg     rms          rms(c)
DAV:   1     0.885568278941E+03    0.88557E+03   -0.41944E+04 10188   0.333E+03
DAV:   2     0.139547694645E+03   -0.74602E+03   -0.71712E+03  9920   0.787E+02
DAV:   3    -0.299077737755E+02   -0.16946E+03   -0.16405E+03 11256   0.265E+02
DAV:   4    -0.446834179257E+02   -0.14776E+02   -0.14610E+02 11856   0.790E+01
DAV:   5    -0.451691363656E+02   -0.48572E+00   -0.48375E+00 12900   0.140E+01    0.161E+01
DAV:   6    -0.380581602299E+02    0.71110E+01   -0.22666E+01 18912   0.806E+01    0.760E+00
DAV:   7    -0.385457701397E+02   -0.48761E+00   -0.73030E+00 10720   0.186E+01    0.494E+00
DAV:   8    -0.385017934692E+02    0.43977E-01   -0.13926E+00 15268   0.893E+00    0.229E+00
DAV:   9    -0.384408599555E+02    0.60934E-01   -0.23875E-01 14440   0.578E+00    0.663E-01
DAV:  10    -0.384384980852E+02    0.23619E-02   -0.72630E-02 11680   0.207E+00    0.235E-01
DAV:  11    -0.384394311778E+02   -0.93309E-03   -0.11368E-02 12512   0.125E+00    0.137E-01
DAV:  12    -0.384395530998E+02   -0.12192E-03   -0.14022E-03 11912   0.695E-01    0.615E-02
DAV:  13    -0.384396136365E+02   -0.60537E-04   -0.41919E-04 12268   0.185E-01    0.255E-02
DAV:  14    -0.384396215095E+02   -0.78729E-05   -0.77416E-05 12840   0.858E-02    0.109E-02
DAV:  15    -0.384396270393E+02   -0.55298E-05   -0.17932E-05 10940   0.487E-02    0.484E-03
DAV:  16    -0.384396278717E+02   -0.83238E-06   -0.39986E-06 12608   0.226E-02    0.173E-03
DAV:  17    -0.384396280849E+02   -0.21324E-06   -0.75404E-07 11112   0.625E-03    0.926E-04
DAV:  18    -0.384396280346E+02    0.50342E-07   -0.10921E-07 12068   0.534E-03    0.505E-04
DAV:  19    -0.384396280013E+02    0.33240E-07   -0.40208E-08  9876   0.313E-03    0.201E-04
DAV:  20    -0.384396280084E+02   -0.70390E-08   -0.74076E-09  6204   0.102E-03
   1 F= -.38439628E+02 E0= -.38439628E+02  d E =-.384396E+02
 curvature:   0.00 expect dE= 0.000E+00 dE for cont linesearch  0.000E+00
 trial: gam= 0.00000 g(F)=  0.379E-04 g(S)=  0.928E-02 ort = 0.000E+00 (trialstep = 0.100E+01)
 search vector abs. value=  0.932E-02
 bond charge predicted
       N       E                     dE             d eps       ncg     rms          rms(c)
DAV:   1    -0.385227258636E+02   -0.83098E-01   -0.13665E+00 13392   0.159E+01    0.201E+00
DAV:   2    -0.384572355126E+02    0.65490E-01   -0.27726E-01 12564   0.829E+00    0.822E-01
DAV:   3    -0.384474996071E+02    0.97359E-02   -0.24120E-02 14920   0.195E+00    0.382E-01
DAV:   4    -0.384442139958E+02    0.32856E-02   -0.38734E-03 15856   0.102E+00    0.108E-01
DAV:   5    -0.384440593839E+02    0.15461E-03   -0.17931E-03 10904   0.428E-01    0.270E-02
DAV:   6    -0.384440650873E+02   -0.57034E-05   -0.21906E-04 11740   0.156E-01    0.198E-02
DAV:   7    -0.384440649555E+02    0.13180E-06   -0.19559E-05 11952   0.818E-02    0.128E-02
DAV:   8    -0.384440661298E+02   -0.11743E-05   -0.79587E-06 16640   0.381E-02    0.414E-03
DAV:   9    -0.384440665888E+02   -0.45900E-06   -0.29202E-06 11760   0.253E-02    0.181E-03
DAV:  10    -0.384440667246E+02   -0.13580E-06   -0.38059E-07 11456   0.103E-02    0.555E-04
DAV:  11    -0.384440667677E+02   -0.43149E-07   -0.97381E-08 11768   0.399E-03    0.365E-04
DAV:  12    -0.384440667909E+02   -0.23179E-07   -0.17862E-08  6304   0.213E-03    0.153E-04
DAV:  13    -0.384440667905E+02    0.42428E-09   -0.50776E-09  6156   0.103E-03
   2 F= -.38444067E+02 E0= -.38444066E+02  d E =-.443878E-02
 trial-energy change:   -0.004439  1 .order   -0.004480   -0.009318    0.000358
 step:   0.9620(harm=  0.9630)  dis= 0.00050  next Energy=   -38.444074 (dE=-0.445E-02)
 bond charge predicted
       N       E                     dE             d eps       ncg     rms          rms(c)
DAV:   1    -0.384441863248E+02   -0.11953E-03   -0.19523E-03 13384   0.595E-01    0.763E-02
DAV:   2    -0.384440916699E+02    0.94655E-04   -0.40577E-04 12308   0.324E-01    0.311E-02
DAV:   3    -0.384440783767E+02    0.13293E-04   -0.35939E-05 14576   0.763E-02    0.144E-02
DAV:   4    -0.384440739659E+02    0.44108E-05   -0.58946E-06 15624   0.411E-02    0.442E-03
DAV:   5    -0.384440738292E+02    0.13668E-06   -0.26387E-06 11004   0.166E-02    0.111E-03
DAV:   6    -0.384440738479E+02   -0.18653E-07   -0.37675E-07 11612   0.617E-03    0.775E-04
DAV:   7    -0.384440738364E+02    0.11414E-07   -0.28812E-08  8932   0.316E-03    0.486E-04
DAV:   8    -0.384440738102E+02    0.26252E-07   -0.91193E-09  6076   0.149E-03    0.152E-04
DAV:   9    -0.384440738018E+02    0.84278E-08   -0.83163E-09  5808   0.136E-03
   3 F= -.38444074E+02 E0= -.38444074E+02  d E =-.444579E-02
 curvature:  -0.48 expect dE=-0.223E-02 dE for cont linesearch -0.346E-08
 trial: gam= 0.49767 g(F)=  0.157E-02 g(S)=  0.306E-02 ort =-0.818E-05 (trialstep = 0.992E+00)
 search vector abs. value=  0.693E-02
 bond charge predicted
       N       E                     dE             d eps       ncg     rms          rms(c)
DAV:   1    -0.384584346341E+02   -0.14361E-01   -0.79517E-01 10080   0.554E+00    0.837E-01
DAV:   2    -0.384517228925E+02    0.67117E-02   -0.40860E-02 12192   0.274E+00    0.477E-01
DAV:   3    -0.384477422401E+02    0.39807E-02   -0.60499E-03 12544   0.127E+00    0.174E-01
DAV:   4    -0.384473607093E+02    0.38153E-03   -0.22933E-03 11676   0.691E-01    0.327E-02
DAV:   5    -0.384474110895E+02   -0.50380E-04   -0.63119E-04 11184   0.285E-01    0.244E-02
DAV:   6    -0.384474115640E+02   -0.47457E-06   -0.64266E-05 12144   0.151E-01    0.146E-02
DAV:   7    -0.384474117513E+02   -0.18720E-06   -0.15336E-05 13748   0.571E-02    0.418E-03
DAV:   8    -0.384474120578E+02   -0.30653E-06   -0.39563E-06 12392   0.315E-02    0.193E-03
DAV:   9    -0.384474121030E+02   -0.45240E-07   -0.80701E-07 12092   0.103E-02    0.129E-03
DAV:  10    -0.384474121296E+02   -0.26543E-07   -0.16192E-07 12240   0.479E-03    0.503E-04
DAV:  11    -0.384474121429E+02   -0.13337E-07   -0.38132E-08  8848   0.371E-03    0.124E-04
DAV:  12    -0.384474121443E+02   -0.14320E-08   -0.71209E-09  6172   0.108E-03
   4 F= -.38447412E+02 E0= -.38447412E+02  d E =-.333834E-02
 trial-energy change:   -0.003338  1 .order   -0.003328   -0.004590   -0.002066
 step:   1.7700(harm=  1.8047)  dis= 0.00711  next Energy=   -38.448226 (dE=-0.415E-02)
 bond charge predicted
       N       E                     dE             d eps       ncg     rms          rms(c)
DAV:   1    -0.384549972959E+02   -0.75852E-02   -0.48731E-01 10084   0.432E+00    0.654E-01
DAV:   2    -0.384509061528E+02    0.40911E-02   -0.24735E-02 12176   0.212E+00    0.373E-01
DAV:   3    -0.384484609199E+02    0.24452E-02   -0.36967E-03 12852   0.990E-01    0.135E-01
DAV:   4    -0.384482360267E+02    0.22489E-03   -0.13964E-03 11604   0.536E-01    0.257E-02
DAV:   5    -0.384482656993E+02   -0.29673E-04   -0.37410E-04 11292   0.216E-01    0.191E-02
DAV:   6    -0.384482658658E+02   -0.16647E-06   -0.36948E-05 12044   0.110E-01    0.113E-02
DAV:   7    -0.384482659930E+02   -0.12717E-06   -0.89843E-06 13556   0.443E-02    0.318E-03
DAV:   8    -0.384482661964E+02   -0.20343E-06   -0.24105E-06 11948   0.233E-02    0.149E-03
DAV:   9    -0.384482662271E+02   -0.30758E-07   -0.49478E-07 12048   0.796E-03    0.100E-03
DAV:  10    -0.384482662462E+02   -0.19022E-07   -0.99295E-08 11768   0.383E-03    0.381E-04
DAV:  11    -0.384482662550E+02   -0.88239E-08   -0.21404E-08  7092   0.273E-03
   5 F= -.38448266E+02 E0= -.38448266E+02  d E =-.419245E-02
 curvature:  -1.35 expect dE=-0.516E-02 dE for cont linesearch -0.149E-05
 trial: gam= 0.81899 g(F)=  0.261E-02 g(S)=  0.121E-02 ort = 0.875E-04 (trialstep = 0.923E+00)
 search vector abs. value=  0.862E-02
 bond charge predicted
       N       E                     dE             d eps       ncg     rms          rms(c)
DAV:   1    -0.384549275876E+02   -0.66613E-02   -0.10567E+00  9988   0.606E+00    0.695E-01
DAV:   2    -0.384528905203E+02    0.20371E-02   -0.47739E-02 12244   0.241E+00    0.415E-01
DAV:   3    -0.384499727879E+02    0.29177E-02   -0.60383E-03 13316   0.129E+00    0.146E-01
DAV:   4    -0.384497779709E+02    0.19482E-03   -0.20931E-03 10864   0.640E-01    0.376E-02
DAV:   5    -0.384498068519E+02   -0.28881E-04   -0.45616E-04 11928   0.246E-01    0.224E-02
DAV:   6    -0.384498078023E+02   -0.95040E-06   -0.51723E-05 11688   0.112E-01    0.126E-02
DAV:   7    -0.384498086493E+02   -0.84701E-06   -0.13918E-05 12620   0.513E-02    0.354E-03
DAV:   8    -0.384498089126E+02   -0.26332E-06   -0.27907E-06 11788   0.196E-02    0.162E-03
DAV:   9    -0.384498089628E+02   -0.50235E-07   -0.41966E-07 12000   0.825E-03    0.110E-03
DAV:  10    -0.384498090017E+02   -0.38874E-07   -0.99199E-08 12112   0.448E-03    0.343E-04
DAV:  11    -0.384498090088E+02   -0.70700E-08   -0.24575E-08  7512   0.216E-03
   6 F= -.38449809E+02 E0= -.38449809E+02  d E =-.154275E-02
 trial-energy change:   -0.001543  1 .order   -0.001544   -0.003597    0.000508
 step:   0.8089(harm=  0.8089)  dis= 0.00356  next Energy=   -38.449842 (dE=-0.158E-02)
 bond charge predicted
       N       E                     dE             d eps       ncg     rms          rms(c)
DAV:   1    -0.384499240464E+02   -0.11504E-03   -0.16169E-02  9976   0.748E-01    0.859E-02
DAV:   2    -0.384498916329E+02    0.32413E-04   -0.72334E-04 12172   0.294E-01    0.513E-02
DAV:   3    -0.384498466358E+02    0.44997E-04   -0.91600E-05 13440   0.157E-01    0.177E-02
DAV:   4    -0.384498438688E+02    0.27670E-05   -0.32098E-05 10764   0.794E-02    0.461E-03
DAV:   5    -0.384498442280E+02   -0.35927E-06   -0.67810E-06 11884   0.293E-02    0.278E-03
DAV:   6    -0.384498442124E+02    0.15621E-07   -0.74193E-07 11700   0.138E-02    0.155E-03
DAV:   7    -0.384498441862E+02    0.26189E-07   -0.20326E-07 11344   0.579E-03    0.418E-04
DAV:   8    -0.384498441792E+02    0.70681E-08   -0.38413E-08  8692   0.227E-03
   7 F= -.38449844E+02 E0= -.38449844E+02  d E =-.157792E-02
 curvature:  -0.89 expect dE=-0.147E-02 dE for cont linesearch -0.537E-09
 trial: gam= 0.45281 g(F)=  0.122E-02 g(S)=  0.425E-03 ort =-0.227E-05 (trialstep = 0.900E+00)
 search vector abs. value=  0.341E-02
 bond charge predicted
       N       E                     dE             d eps       ncg     rms          rms(c)
DAV:   1    -0.384532240752E+02   -0.33799E-02   -0.40869E-01  9916   0.371E+00    0.412E-01
DAV:   2    -0.384521502210E+02    0.10739E-02   -0.14154E-02 11752   0.119E+00    0.243E-01
DAV:   3    -0.384510389060E+02    0.11113E-02   -0.14310E-03 14724   0.495E-01    0.567E-02
DAV:   4    -0.384510302218E+02    0.86842E-05   -0.54425E-04 10772   0.218E-01    0.155E-02
DAV:   5    -0.384510373625E+02   -0.71407E-05   -0.89536E-05 11924   0.878E-02    0.116E-02
DAV:   6    -0.384510368652E+02    0.49724E-06   -0.49685E-06 13096   0.466E-02    0.701E-03
DAV:   7    -0.384510368815E+02   -0.16243E-07   -0.22609E-06 13140   0.182E-02    0.208E-03
DAV:   8    -0.384510368572E+02    0.24280E-07   -0.60155E-07 12556   0.930E-03    0.838E-04
DAV:   9    -0.384510368628E+02   -0.55711E-08   -0.15600E-07 13796   0.588E-03    0.586E-04
DAV:  10    -0.384510368620E+02    0.81764E-09   -0.29699E-08  7468   0.187E-03
   8 F= -.38451037E+02 E0= -.38451036E+02  d E =-.119268E-02
 trial-energy change:   -0.001193  1 .order   -0.001180   -0.001479   -0.000881
 step:   1.9404(harm=  2.2246)  dis= 0.00659  next Energy=   -38.451565 (dE=-0.172E-02)
 bond charge predicted
       N       E                     dE             d eps       ncg     rms          rms(c)
DAV:   1    -0.384545383052E+02   -0.35014E-02   -0.54594E-01  9920   0.429E+00    0.477E-01
DAV:   2    -0.384530900191E+02    0.14483E-02   -0.18937E-02 11744   0.137E+00    0.281E-01
DAV:   3    -0.384516040655E+02    0.14860E-02   -0.19078E-03 14716   0.572E-01    0.662E-02
DAV:   4    -0.384515904195E+02    0.13646E-04   -0.72620E-04 10780   0.253E-01    0.179E-02
DAV:   5    -0.384516000831E+02   -0.96636E-05   -0.12060E-04 11900   0.102E-01    0.134E-02
DAV:   6    -0.384515994557E+02    0.62744E-06   -0.66790E-06 13056   0.545E-02    0.809E-03
DAV:   7    -0.384515995003E+02   -0.44659E-07   -0.30039E-06 13072   0.204E-02    0.239E-03
DAV:   8    -0.384515994684E+02    0.31925E-07   -0.77437E-07 12548   0.103E-02    0.976E-04
DAV:   9    -0.384515994752E+02   -0.67653E-08   -0.20890E-07 14204   0.701E-03    0.672E-04
DAV:  10    -0.384515994745E+02    0.68121E-09   -0.41793E-08 10204   0.208E-03
   9 F= -.38451599E+02 E0= -.38451599E+02  d E =-.175530E-02
 curvature:  -2.20 expect dE=-0.228E-02 dE for cont linesearch -0.293E-04
 ZBRENT: extrapolating
 opt :   2.2298  next Energy=   -38.451630 (dE=-0.179E-02)
 bond charge predicted
       N       E                     dE             d eps       ncg     rms          rms(c)
DAV:   1    -0.384518575960E+02   -0.25812E-03   -0.42312E-02  9944   0.119E+00    0.133E-01
DAV:   2    -0.384517442771E+02    0.11332E-03   -0.14750E-03 11760   0.388E-01    0.783E-02
DAV:   3    -0.384516291890E+02    0.11509E-03   -0.15015E-04 14592   0.160E-01    0.188E-02
DAV:   4    -0.384516277940E+02    0.13951E-05   -0.57446E-05 10800   0.722E-02    0.501E-03
DAV:   5    -0.384516285595E+02   -0.76555E-06   -0.97316E-06 11908   0.285E-02    0.376E-03
DAV:   6    -0.384516284903E+02    0.69278E-07   -0.52224E-07 13116   0.136E-02    0.228E-03
DAV:   7    -0.384516284654E+02    0.24844E-07   -0.22869E-07 12800   0.570E-03    0.669E-04
DAV:   8    -0.384516284607E+02    0.47085E-08   -0.60373E-08 10704   0.295E-03
  10 F= -.38451628E+02 E0= -.38451628E+02  d E =-.178428E-02
 curvature:  -2.32 expect dE=-0.303E-02 dE for cont linesearch -0.609E-08
 trial: gam= 0.75246 g(F)=  0.110E-02 g(S)=  0.211E-03 ort = 0.299E-05 (trialstep = 0.117E+01)
 search vector abs. value=  0.324E-02
 bond charge predicted
       N       E                     dE             d eps       ncg     rms          rms(c)
DAV:   1    -0.384554261576E+02   -0.37977E-02   -0.73807E-01  9868   0.485E+00    0.489E-01
DAV:   2    -0.384543774103E+02    0.10487E-02   -0.23853E-02 11256   0.150E+00    0.289E-01
DAV:   3    -0.384528672397E+02    0.15102E-02   -0.20403E-03 14380   0.627E-01    0.816E-02
DAV:   4    -0.384528184086E+02    0.48831E-04   -0.78208E-04 10792   0.309E-01    0.183E-02
DAV:   5    -0.384528306952E+02   -0.12287E-04   -0.15606E-04 11544   0.137E-01    0.153E-02
DAV:   6    -0.384528300799E+02    0.61537E-06   -0.13090E-05 12864   0.700E-02    0.742E-03
DAV:   7    -0.384528301104E+02   -0.30526E-07   -0.38633E-06 12764   0.295E-02    0.197E-03
DAV:   8    -0.384528301462E+02   -0.35793E-07   -0.11588E-06 11196   0.114E-02    0.127E-03
DAV:   9    -0.384528301409E+02    0.52837E-08   -0.18826E-07 13412   0.657E-03    0.742E-04
DAV:  10    -0.384528301332E+02    0.76748E-08   -0.50230E-08 10772   0.277E-03
  11 F= -.38452830E+02 E0= -.38452830E+02  d E =-.120167E-02
 trial-energy change:   -0.001202  1 .order   -0.001207   -0.001530   -0.000884
 step:   3.0045(harm=  2.7621)  dis= 0.01711  next Energy=   -38.453505 (dE=-0.188E-02)
 bond charge predicted
       N       E                     dE             d eps       ncg     rms          rms(c)
DAV:   1    -0.384599009435E+02   -0.70708E-02   -0.18346E+00  9864   0.765E+00    0.773E-01
DAV:   2    -0.384572669749E+02    0.26340E-02   -0.59516E-02 11232   0.234E+00    0.455E-01
DAV:   3    -0.384535154579E+02    0.37515E-02   -0.50514E-03 14424   0.965E-01    0.130E-01
DAV:   4    -0.384533848876E+02    0.13057E-03   -0.18936E-03 10796   0.468E-01    0.288E-02
DAV:   5    -0.384534148805E+02   -0.29993E-04   -0.38157E-04 11492   0.214E-01    0.241E-02
DAV:   6    -0.384534134011E+02    0.14793E-05   -0.31122E-05 12744   0.107E-01    0.116E-02
DAV:   7    -0.384534135983E+02   -0.19723E-06   -0.92769E-06 12708   0.436E-02    0.312E-03
DAV:   8    -0.384534137040E+02   -0.10564E-06   -0.26580E-06 11260   0.159E-02    0.197E-03
DAV:   9    -0.384534136955E+02    0.85001E-08   -0.44649E-07 13692   0.107E-02    0.116E-03
DAV:  10    -0.384534136845E+02    0.11003E-07   -0.13299E-07 13388   0.397E-03    0.338E-04
DAV:  11    -0.384534136832E+02    0.12606E-08   -0.22699E-08  7872   0.218E-03
  12 F= -.38453414E+02 E0= -.38453413E+02  d E =-.178522E-02
 curvature:  -3.34 expect dE=-0.774E-02 dE for cont linesearch -0.181E-04
 trial: gam= 1.86098 g(F)=  0.195E-02 g(S)=  0.368E-03 ort =-0.133E-03 (trialstep = 0.381E+00)
 search vector abs. value=  0.131E-01
 bond charge predicted
       N       E                     dE             d eps       ncg     rms          rms(c)
DAV:   1    -0.384548228686E+02   -0.14092E-02   -0.35503E-01  9856   0.328E+00    0.287E-01
DAV:   2    -0.384546235746E+02    0.19929E-03   -0.99993E-03 10936   0.925E-01    0.167E-01
DAV:   3    -0.384541675937E+02    0.45598E-03   -0.72797E-04 14732   0.311E-01    0.572E-02
DAV:   4    -0.384541225803E+02    0.45013E-04   -0.22372E-04 11792   0.153E-01    0.111E-02
DAV:   5    -0.384541281302E+02   -0.55499E-05   -0.65154E-05 11280   0.779E-02    0.900E-03
DAV:   6    -0.384541278883E+02    0.24189E-06   -0.37097E-06 12332   0.246E-02    0.520E-03
DAV:   7    -0.384541278298E+02    0.58519E-07   -0.11452E-06 12412   0.130E-02    0.159E-03
DAV:   8    -0.384541278103E+02    0.19495E-07   -0.38076E-07 12228   0.857E-03    0.746E-04
DAV:   9    -0.384541278183E+02   -0.80690E-08   -0.10863E-07 11976   0.386E-03    0.481E-04
DAV:  10    -0.384541278161E+02    0.22374E-08   -0.15410E-08  6480   0.147E-03
  13 F= -.38454128E+02 E0= -.38454127E+02  d E =-.714133E-03
 ZBRENT: can't locate minimum, use default step
 trial-energy change:   -0.000714  1 .order   -0.000714   -0.000790   -0.000638
 step:   1.5240(harm=  1.9867)  dis= 0.01407  next Energy=   -38.455472 (dE=-0.206E-02)
 bond charge predicted
       N       E                     dE             d eps       ncg     rms          rms(c)
DAV:   1    -0.384617411237E+02   -0.76133E-02   -0.31932E+00  9856   0.981E+00    0.862E-01
DAV:   2    -0.384598710925E+02    0.18700E-02   -0.89992E-02 10944   0.270E+00    0.500E-01
DAV:   3    -0.384557522576E+02    0.41188E-02   -0.63141E-03 14744   0.866E-01    0.173E-01
DAV:   4    -0.384553330398E+02    0.41922E-03   -0.19385E-03 11676   0.425E-01    0.335E-02
DAV:   5    -0.384553810217E+02   -0.47982E-04   -0.57951E-04 11292   0.241E-01    0.275E-02
DAV:   6    -0.384553796354E+02    0.13863E-05   -0.35342E-05 12240   0.750E-02    0.165E-02
DAV:   7    -0.384553794876E+02    0.14778E-06   -0.10600E-05 12064   0.393E-02    0.486E-03
DAV:   8    -0.384553793366E+02    0.15103E-06   -0.34414E-06 11864   0.248E-02    0.207E-03
DAV:   9    -0.384553794065E+02   -0.69870E-07   -0.10243E-06 11256   0.108E-02    0.149E-03
DAV:  10    -0.384553793908E+02    0.15625E-07   -0.15472E-07 12828   0.514E-03    0.628E-04
DAV:  11    -0.384553793984E+02   -0.75506E-08   -0.68179E-08 10884   0.269E-03
  14 F= -.38455379E+02 E0= -.38455379E+02  d E =-.196572E-02
 curvature:  -5.74 expect dE=-0.107E-01 dE for cont linesearch -0.118E-03
 ZBRENT: extrapolating
 opt :   2.0363  next Energy=   -38.455512 (dE=-0.210E-02)
 bond charge predicted
       N       E                     dE             d eps       ncg     rms          rms(c)
DAV:   1    -0.384568187910E+02   -0.14394E-02   -0.64244E-01  9856   0.441E+00    0.388E-01
DAV:   2    -0.384564206172E+02    0.39817E-03   -0.18131E-02 10936   0.124E+00    0.225E-01
DAV:   3    -0.384555941951E+02    0.82642E-03   -0.13193E-03 14704   0.412E-01    0.781E-02
DAV:   4    -0.384555085710E+02    0.85624E-04   -0.40087E-04 11808   0.204E-01    0.150E-02
DAV:   5    -0.384555187347E+02   -0.10164E-04   -0.12052E-04 11292   0.107E-01    0.122E-02
DAV:   6    -0.384555183405E+02    0.39421E-06   -0.68905E-06 12324   0.333E-02    0.703E-03
DAV:   7    -0.384555182627E+02    0.77738E-07   -0.20578E-06 12156   0.166E-02    0.211E-03
DAV:   8    -0.384555182315E+02    0.31254E-07   -0.67619E-07 12068   0.111E-02    0.991E-04
DAV:   9    -0.384555182446E+02   -0.13139E-07   -0.19654E-07 12068   0.512E-03    0.654E-04
DAV:  10    -0.384555182415E+02    0.31673E-08   -0.29660E-08  8020   0.199E-03
  15 F= -.38455518E+02 E0= -.38455518E+02  d E =-.210456E-02
 curvature:  -6.45 expect dE=-0.170E-01 dE for cont linesearch -0.177E-06
 trial: gam= 0.84891 g(F)=  0.244E-02 g(S)=  0.186E-03 ort = 0.189E-04 (trialstep = 0.712E+00)
 search vector abs. value=  0.121E-01
 bond charge predicted
       N       E                     dE             d eps       ncg     rms          rms(c)
DAV:   1    -0.384583025643E+02   -0.27843E-02   -0.12427E+00  9856   0.598E+00    0.481E-01
DAV:   2    -0.384584208293E+02   -0.11826E-03   -0.35648E-02 11048   0.171E+00    0.272E-01
DAV:   3    -0.384572020423E+02    0.12188E-02   -0.22731E-03 12972   0.545E-01    0.110E-01
DAV:   4    -0.384570177655E+02    0.18428E-03   -0.71676E-04 12644   0.312E-01    0.203E-02
DAV:   5    -0.384570364513E+02   -0.18686E-04   -0.23110E-04 10760   0.152E-01    0.164E-02
DAV:   6    -0.384570358709E+02    0.58043E-06   -0.18683E-05 13004   0.590E-02    0.826E-03
DAV:   7    -0.384570356157E+02    0.25520E-06   -0.35590E-06 11412   0.217E-02    0.330E-03
DAV:   8    -0.384570356520E+02   -0.36287E-07   -0.11433E-06 13264   0.932E-03    0.128E-03
DAV:   9    -0.384570356491E+02    0.29095E-08   -0.14966E-07 12104   0.707E-03    0.656E-04
DAV:  10    -0.384570356548E+02   -0.57826E-08   -0.58559E-08 10864   0.294E-03
  16 F= -.38457036E+02 E0= -.38457035E+02  d E =-.151741E-02
 trial-energy change:   -0.001517  1 .order   -0.001522   -0.001884   -0.001161
 step:   2.0072(harm=  1.8553)  dis= 0.01825  next Energy=   -38.458061 (dE=-0.254E-02)
 bond charge predicted
       N       E                     dE             d eps       ncg     rms          rms(c)
DAV:   1    -0.384621741579E+02   -0.51385E-02   -0.41141E+00  9856   0.109E+01    0.877E-01
DAV:   2    -0.384625371081E+02   -0.36295E-03   -0.11877E-01 11040   0.305E+00    0.494E-01
DAV:   3    -0.384584937374E+02    0.40434E-02   -0.73232E-03 12996   0.955E-01    0.202E-01
DAV:   4    -0.384578666359E+02    0.62710E-03   -0.23042E-03 12524   0.553E-01    0.367E-02
DAV:   5    -0.384579268088E+02   -0.60173E-04   -0.75473E-04 10836   0.279E-01    0.299E-02
DAV:   6    -0.384579256280E+02    0.11808E-05   -0.58084E-05 12744   0.979E-02    0.160E-02
DAV:   7    -0.384579248365E+02    0.79150E-06   -0.10805E-05 12140   0.420E-02    0.633E-03
DAV:   8    -0.384579250711E+02   -0.23460E-06   -0.32924E-06 12116   0.178E-02    0.210E-03
DAV:   9    -0.384579250738E+02   -0.26184E-08   -0.54737E-07 11716   0.966E-03    0.114E-03
DAV:  10    -0.384579250858E+02   -0.12053E-07   -0.15416E-07 11944   0.514E-03    0.523E-04
DAV:  11    -0.384579250813E+02    0.44888E-08   -0.26439E-08  7976   0.242E-03
  17 F= -.38457925E+02 E0= -.38457925E+02  d E =-.240684E-02
 curvature:  -4.16 expect dE=-0.116E-01 dE for cont linesearch -0.234E-04
 trial: gam= 1.25475 g(F)=  0.258E-02 g(S)=  0.201E-03 ort =-0.261E-03 (trialstep = 0.555E+00)
 search vector abs. value=  0.211E-01
 bond charge predicted
       N       E                     dE             d eps       ncg     rms          rms(c)
DAV:   1    -0.384594393575E+02   -0.15143E-02   -0.13676E+00  9856   0.614E+00    0.454E-01
DAV:   2    -0.384602167822E+02   -0.77742E-03   -0.36666E-02 11016   0.166E+00    0.276E-01
DAV:   3    -0.384590168786E+02    0.11999E-02   -0.22901E-03 12580   0.703E-01    0.111E-01
DAV:   4    -0.384588298279E+02    0.18705E-03   -0.89119E-04 11348   0.382E-01    0.231E-02
DAV:   5    -0.384588488368E+02   -0.19009E-04   -0.24605E-04 11196   0.195E-01    0.156E-02
DAV:   6    -0.384588492836E+02   -0.44688E-06   -0.26757E-05 12612   0.761E-02    0.986E-03
DAV:   7    -0.384588491788E+02    0.10479E-06   -0.66377E-06 12064   0.369E-02    0.311E-03
DAV:   8    -0.384588493639E+02   -0.18505E-06   -0.19533E-06 11540   0.174E-02    0.146E-03
DAV:   9    -0.384588493964E+02   -0.32543E-07   -0.34945E-07 11716   0.554E-03    0.880E-04
DAV:  10    -0.384588494127E+02   -0.16249E-07   -0.72823E-08 11812   0.502E-03    0.299E-04
DAV:  11    -0.384588494151E+02   -0.23597E-08   -0.18065E-08  7984   0.265E-03
  18 F= -.38458849E+02 E0= -.38458849E+02  d E =-.924334E-03
 trial-energy change:   -0.000924  1 .order   -0.000927   -0.001361   -0.000493
 step:   0.8807(harm=  0.8701)  dis= 0.01143  next Energy=   -38.458994 (dE=-0.107E-02)
 bond charge predicted
       N       E                     dE             d eps       ncg     rms          rms(c)
DAV:   1    -0.384591997955E+02   -0.35038E-03   -0.47247E-01  9856   0.360E+00    0.267E-01
DAV:   2    -0.384594614710E+02   -0.26168E-03   -0.12581E-02 11008   0.969E-01    0.162E-01
DAV:   3    -0.384590429644E+02    0.41851E-03   -0.78268E-04 12568   0.405E-01    0.643E-02
DAV:   4    -0.384589815869E+02    0.61377E-04   -0.30297E-04 11292   0.224E-01    0.135E-02
DAV:   5    -0.384589879983E+02   -0.64114E-05   -0.82541E-05 11200   0.114E-01    0.906E-03
DAV:   6    -0.384589881545E+02   -0.15616E-06   -0.90470E-06 12628   0.451E-02    0.568E-03
DAV:   7    -0.384589881435E+02    0.11049E-07   -0.22733E-06 11948   0.216E-02    0.170E-03
DAV:   8    -0.384589882119E+02   -0.68463E-07   -0.65854E-07 11272   0.101E-02    0.845E-04
DAV:   9    -0.384589882251E+02   -0.13145E-07   -0.10965E-07 11192   0.340E-03    0.489E-04
DAV:  10    -0.384589882330E+02   -0.79167E-08   -0.20922E-08  7396   0.302E-03
  19 F= -.38458988E+02 E0= -.38458988E+02  d E =-.106315E-02
 curvature:  -3.74 expect dE=-0.637E-02 dE for cont linesearch -0.242E-06
 trial: gam= 0.41488 g(F)=  0.136E-02 g(S)=  0.340E-03 ort =-0.370E-04 (trialstep = 0.620E+00)
 search vector abs. value=  0.531E-02
 bond charge predicted
       N       E                     dE             d eps       ncg     rms          rms(c)
DAV:   1    -0.384596636626E+02   -0.67544E-03   -0.44386E-01  9856   0.362E+00    0.254E-01
DAV:   2    -0.384600404337E+02   -0.37677E-03   -0.13838E-02 11016   0.106E+00    0.137E-01
DAV:   3    -0.384598443726E+02    0.19606E-03   -0.82461E-04 12316   0.312E-01    0.698E-02
DAV:   4    -0.384597626373E+02    0.81735E-04   -0.22096E-04 12592   0.235E-01    0.158E-02
DAV:   5    -0.384597665694E+02   -0.39322E-05   -0.84161E-05 11084   0.103E-01    0.802E-03
DAV:   6    -0.384597669522E+02   -0.38279E-06   -0.11121E-05 12688   0.350E-02    0.520E-03
DAV:   7    -0.384597668251E+02    0.12717E-06   -0.13372E-06 12004   0.256E-02    0.313E-03
DAV:   8    -0.384597667616E+02    0.63425E-07   -0.53945E-07 13544   0.809E-03    0.803E-04
DAV:   9    -0.384597667673E+02   -0.56389E-08   -0.15208E-07 10760   0.395E-03    0.488E-04
DAV:  10    -0.384597667636E+02    0.37294E-08   -0.24888E-08  7952   0.173E-03
  20 F= -.38459767E+02 E0= -.38459766E+02  d E =-.778531E-03
 trial-energy change:   -0.000779  1 .order   -0.000780   -0.001046   -0.000513
 step:   1.2175(harm=  1.2175)  dis= 0.00695  next Energy=   -38.460015 (dE=-0.103E-02)
 bond charge predicted
       N       E                     dE             d eps       ncg     rms          rms(c)
DAV:   1    -0.384599231142E+02   -0.15635E-03   -0.41239E-01  9856   0.349E+00    0.245E-01
DAV:   2    -0.384602710895E+02   -0.34798E-03   -0.12864E-02 11008   0.102E+00    0.132E-01
DAV:   3    -0.384600893487E+02    0.18174E-03   -0.76958E-04 12312   0.302E-01    0.673E-02
DAV:   4    -0.384600134410E+02    0.75908E-04   -0.20495E-04 12592   0.227E-01    0.153E-02
DAV:   5    -0.384600170805E+02   -0.36395E-05   -0.78184E-05 11080   0.991E-02    0.772E-03
DAV:   6    -0.384600174376E+02   -0.35710E-06   -0.10352E-05 12688   0.337E-02    0.501E-03
DAV:   7    -0.384600173180E+02    0.11961E-06   -0.12413E-06 11980   0.246E-02    0.302E-03
DAV:   8    -0.384600172575E+02    0.60504E-07   -0.50154E-07 13600   0.779E-03    0.777E-04
DAV:   9    -0.384600172630E+02   -0.54933E-08   -0.14121E-07 10768   0.378E-03    0.469E-04
DAV:  10    -0.384600172589E+02    0.40300E-08   -0.22726E-08  7520   0.168E-03
  21 F= -.38460017E+02 E0= -.38460016E+02  d E =-.102903E-02
 curvature:  -1.92 expect dE=-0.759E-03 dE for cont linesearch -0.157E-07
 trial: gam= 0.26000 g(F)=  0.353E-03 g(S)=  0.428E-04 ort = 0.660E-05 (trialstep = 0.739E+00)
 search vector abs. value=  0.759E-03
 bond charge predicted
       N       E                     dE             d eps       ncg     rms          rms(c)
DAV:   1    -0.384601903272E+02   -0.17306E-03   -0.90090E-02 10072   0.172E+00    0.106E-01
DAV:   2    -0.384602883517E+02   -0.98024E-04   -0.28959E-03 10960   0.479E-01    0.542E-02
DAV:   3    -0.384602561649E+02    0.32187E-04   -0.17747E-04 13876   0.153E-01    0.282E-02
DAV:   4    -0.384602426151E+02    0.13550E-04   -0.37183E-05 13344   0.948E-02    0.661E-03
DAV:   5    -0.384602433824E+02   -0.76721E-06   -0.15298E-05 10828   0.456E-02    0.324E-03
DAV:   6    -0.384602434489E+02   -0.66523E-07   -0.17859E-06 12360   0.159E-02    0.215E-03
DAV:   7    -0.384602434008E+02    0.48087E-07   -0.26581E-07 11932   0.919E-03    0.111E-03
DAV:   8    -0.384602433754E+02    0.25394E-07   -0.10026E-07 12568   0.405E-03    0.296E-04
DAV:   9    -0.384602433732E+02    0.22369E-08   -0.21461E-08  7148   0.111E-03
  22 F= -.38460243E+02 E0= -.38460243E+02  d E =-.226114E-03
 trial-energy change:   -0.000226  1 .order   -0.000229   -0.000294   -0.000163
 step:   2.2069(harm=  1.6629)  dis= 0.00596  next Energy=   -38.460384 (dE=-0.367E-03)
 bond charge predicted
       N       E                     dE             d eps       ncg     rms          rms(c)
DAV:   1    -0.384601013463E+02    0.14203E-03   -0.35475E-01 10072   0.340E+00    0.210E-01
DAV:   2    -0.384604873626E+02   -0.38602E-03   -0.11413E-02 10944   0.948E-01    0.108E-01
DAV:   3    -0.384603595335E+02    0.12783E-03   -0.69704E-04 13876   0.303E-01    0.561E-02
DAV:   4    -0.384603062777E+02    0.53256E-04   -0.14794E-04 13476   0.189E-01    0.131E-02
DAV:   5    -0.384603092048E+02   -0.29271E-05   -0.60324E-05 10864   0.913E-02    0.643E-03
DAV:   6    -0.384603094980E+02   -0.29325E-06   -0.71109E-06 12292   0.315E-02    0.427E-03
DAV:   7    -0.384603093690E+02    0.12901E-06   -0.10370E-06 11856   0.186E-02    0.224E-03
DAV:   8    -0.384603093257E+02    0.43327E-07   -0.39766E-07 12888   0.811E-03    0.578E-04
DAV:   9    -0.384603093259E+02   -0.17008E-09   -0.89450E-08 10752   0.222E-03
  23 F= -.38460309E+02 E0= -.38460308E+02  d E =-.292067E-03
 curvature:  -1.03 expect dE=-0.429E-03 dE for cont linesearch -0.232E-04
 ZBRENT: interpolating
 opt :   1.6621  next Energy=   -38.460345 (dE=-0.328E-03)
 bond charge predicted
       N       E                     dE             d eps       ncg     rms          rms(c)
DAV:   1    -0.384603144611E+02   -0.51354E-05   -0.48940E-02 10076   0.127E+00    0.782E-02
DAV:   2    -0.384603688826E+02   -0.54421E-04   -0.15810E-03 10952   0.357E-01    0.400E-02
DAV:   3    -0.384603511309E+02    0.17752E-04   -0.97969E-05 13924   0.115E-01    0.208E-02
DAV:   4    -0.384603439156E+02    0.72152E-05   -0.19897E-05 13228   0.695E-02    0.490E-03
DAV:   5    -0.384603442697E+02   -0.35405E-06   -0.82890E-06 10804   0.331E-02    0.238E-03
DAV:   6    -0.384603443217E+02   -0.52019E-07   -0.96977E-07 12372   0.118E-02    0.157E-03
DAV:   7    -0.384603443359E+02   -0.14142E-07   -0.14423E-07 11908   0.655E-03    0.792E-04
DAV:   8    -0.384603443595E+02   -0.23674E-07   -0.53090E-08 10952   0.294E-03    0.219E-04
DAV:   9    -0.384603443629E+02   -0.33365E-08   -0.11939E-08  6212   0.896E-04
  24 F= -.38460344E+02 E0= -.38460343E+02  d E =-.327104E-03
 curvature:  -1.58 expect dE=-0.331E-03 dE for cont linesearch -0.586E-09
 trial: gam= 0.54109 g(F)=  0.177E-03 g(S)=  0.324E-04 ort =-0.530E-06 (trialstep = 0.924E+00)
 search vector abs. value=  0.431E-03
 bond charge predicted
       N       E                     dE             d eps       ncg     rms          rms(c)
DAV:   1    -0.384605263792E+02   -0.18202E-03   -0.82140E-02 10004   0.177E+00    0.139E-01
DAV:   2    -0.384605208877E+02    0.54915E-05   -0.41905E-03 11496   0.693E-01    0.640E-02
DAV:   3    -0.384604907774E+02    0.30110E-04   -0.29114E-04 13200   0.203E-01    0.315E-02
DAV:   4    -0.384604726701E+02    0.18107E-04   -0.49807E-05 13320   0.108E-01    0.114E-02
DAV:   5    -0.384604723466E+02    0.32349E-06   -0.19818E-05 11196   0.450E-02    0.320E-03
DAV:   6    -0.384604725008E+02   -0.15417E-06   -0.28318E-06 11080   0.221E-02    0.225E-03
DAV:   7    -0.384604724651E+02    0.35633E-07   -0.31573E-07 12560   0.998E-03    0.127E-03
DAV:   8    -0.384604724163E+02    0.48837E-07   -0.13361E-07 15424   0.447E-03    0.365E-04
DAV:   9    -0.384604724178E+02   -0.14770E-08   -0.39269E-08 10684   0.256E-03
  25 F= -.38460472E+02 E0= -.38460472E+02  d E =-.128055E-03
 trial-energy change:   -0.000128  1 .order   -0.000129   -0.000193   -0.000065
 step:   1.4326(harm=  1.3963)  dis= 0.00189  next Energy=   -38.460490 (dE=-0.146E-03)
 bond charge predicted
       N       E                     dE             d eps       ncg     rms          rms(c)
DAV:   1    -0.384605056954E+02   -0.33279E-04   -0.24893E-02 10000   0.977E-01    0.766E-02
DAV:   2    -0.384605039367E+02    0.17587E-05   -0.12687E-03 11496   0.381E-01    0.352E-02
DAV:   3    -0.384604950515E+02    0.88852E-05   -0.88206E-05 13196   0.112E-01    0.173E-02
DAV:   4    -0.384604896274E+02    0.54241E-05   -0.15052E-05 13320   0.594E-02    0.629E-03
DAV:   5    -0.384604895848E+02    0.42588E-07   -0.60001E-06 11192   0.247E-02    0.176E-03
DAV:   6    -0.384604896366E+02   -0.51801E-07   -0.85922E-07 11072   0.122E-02    0.124E-03
DAV:   7    -0.384604896210E+02    0.15612E-07   -0.95776E-08 12100   0.549E-03    0.698E-04
DAV:   8    -0.384604895944E+02    0.26594E-07   -0.35863E-08  9320   0.245E-03    0.197E-04
DAV:   9    -0.384604895960E+02   -0.16503E-08   -0.13819E-08  6196   0.160E-03
  26 F= -.38460490E+02 E0= -.38460489E+02  d E =-.145233E-03
 curvature:  -1.43 expect dE=-0.148E-03 dE for cont linesearch -0.128E-06
 trial: gam= 0.52005 g(F)=  0.777E-04 g(S)=  0.254E-04 ort =-0.621E-05 (trialstep = 0.103E+01)
 search vector abs. value=  0.213E-03
 bond charge predicted
       N       E                     dE             d eps       ncg     rms          rms(c)
DAV:   1    -0.384604982650E+02   -0.86706E-05   -0.49863E-02  9876   0.126E+00    0.799E-02
DAV:   2    -0.384605751793E+02   -0.76914E-04   -0.17992E-03 11520   0.401E-01    0.410E-02
DAV:   3    -0.384605589149E+02    0.16264E-04   -0.12510E-04 12588   0.119E-01    0.226E-02
DAV:   4    -0.384605498632E+02    0.90517E-05   -0.26433E-05 13104   0.750E-02    0.521E-03
DAV:   5    -0.384605502372E+02   -0.37395E-06   -0.90600E-06 10784   0.325E-02    0.266E-03
DAV:   6    -0.384605502722E+02   -0.35005E-07   -0.14557E-06 13004   0.124E-02    0.187E-03
DAV:   7    -0.384605502389E+02    0.33242E-07   -0.15795E-07 12168   0.747E-03    0.113E-03
DAV:   8    -0.384605501991E+02    0.39861E-07   -0.10300E-07 12572   0.285E-03    0.496E-04
DAV:   9    -0.384605501911E+02    0.79704E-08   -0.27774E-08  8660   0.166E-03
  27 F= -.38460550E+02 E0= -.38460549E+02  d E =-.605951E-04
 trial-energy change:   -0.000061  1 .order   -0.000062   -0.000102   -0.000021
 step:   1.3388(harm=  1.2982)  dis= 0.00129  next Energy=   -38.460553 (dE=-0.638E-04)
 bond charge predicted
       N       E                     dE             d eps       ncg     rms          rms(c)
DAV:   1    -0.384605477969E+02    0.24022E-05   -0.46464E-03  9884   0.386E-01    0.244E-02
DAV:   2    -0.384605548811E+02   -0.70842E-05   -0.16768E-04 11512   0.123E-01    0.125E-02
DAV:   3    -0.384605534236E+02    0.14575E-05   -0.11679E-05 12576   0.365E-02    0.689E-03
DAV:   4    -0.384605525538E+02    0.86975E-06   -0.24718E-06 13080   0.230E-02    0.159E-03
DAV:   5    -0.384605525928E+02   -0.38992E-07   -0.84364E-07 10716   0.992E-03    0.810E-04
DAV:   6    -0.384605525902E+02    0.26293E-08   -0.13501E-07 13056   0.384E-03    0.569E-04
DAV:   7    -0.384605525832E+02    0.70395E-08   -0.12603E-08  6300   0.231E-03
  28 F= -.38460553E+02 E0= -.38460552E+02  d E =-.629871E-04
 curvature:  -1.35 expect dE=-0.133E-03 dE for cont linesearch -0.914E-07
 trial: gam= 0.93631 g(F)=  0.739E-04 g(S)=  0.242E-04 ort =-0.379E-05 (trialstep = 0.835E+00)
 search vector abs. value=  0.278E-03
 bond charge predicted
       N       E                     dE             d eps       ncg     rms          rms(c)
DAV:   1    -0.384605899831E+02   -0.37393E-04   -0.41414E-02  9884   0.120E+00    0.830E-02
DAV:   2    -0.384606262821E+02   -0.36299E-04   -0.15817E-03 11432   0.408E-01    0.481E-02
DAV:   3    -0.384606035410E+02    0.22741E-04   -0.11562E-04 13560   0.124E-01    0.231E-02
DAV:   4    -0.384605936613E+02    0.98797E-05   -0.24737E-05 12808   0.684E-02    0.534E-03
DAV:   5    -0.384605939668E+02   -0.30555E-06   -0.82075E-06 10736   0.267E-02    0.233E-03
DAV:   6    -0.384605940080E+02   -0.41137E-07   -0.88135E-07 12652   0.124E-02    0.155E-03
DAV:   7    -0.384605940094E+02   -0.14488E-08   -0.12147E-07 11392   0.664E-03    0.809E-04
DAV:   8    -0.384605940264E+02   -0.17010E-07   -0.51275E-08 10444   0.246E-03    0.215E-04
DAV:   9    -0.384605940258E+02    0.59936E-09   -0.13953E-08  6240   0.119E-03
  29 F= -.38460594E+02 E0= -.38460593E+02  d E =-.414427E-04
 trial-energy change:   -0.000041  1 .order   -0.000042   -0.000079   -0.000005
 step:   0.9005(harm=  0.8962)  dis= 0.00091  next Energy=   -38.460594 (dE=-0.417E-04)
 bond charge predicted
       N       E                     dE             d eps       ncg     rms          rms(c)
DAV:   1    -0.384605942223E+02   -0.19584E-06   -0.25777E-04 10012   0.945E-02    0.654E-03
DAV:   2    -0.384605944491E+02   -0.22680E-06   -0.97580E-06 11456   0.320E-02    0.379E-03
DAV:   3    -0.384605942502E+02    0.19883E-06   -0.70959E-07 13564   0.964E-03    0.182E-03
DAV:   4    -0.384605941652E+02    0.85038E-07   -0.15199E-07 12520   0.547E-03    0.410E-04
DAV:   5    -0.384605941608E+02    0.43829E-08   -0.51754E-08 10716   0.213E-03
  30 F= -.38460594E+02 E0= -.38460593E+02  d E =-.415777E-04
 curvature:  -1.31 expect dE=-0.395E-04 dE for cont linesearch -0.453E-08
 trial: gam= 0.27911 g(F)=  0.200E-04 g(S)=  0.102E-04 ort =-0.981E-06 (trialstep = 0.848E+00)
 search vector abs. value=  0.513E-04
 bond charge predicted
       N       E                     dE             d eps       ncg     rms          rms(c)
DAV:   1    -0.384606170881E+02   -0.22923E-04   -0.76130E-03  9884   0.509E-01    0.377E-02
DAV:   2    -0.384606179000E+02   -0.81186E-06   -0.25983E-04 11964   0.177E-01    0.194E-02
DAV:   3    -0.384606138050E+02    0.40949E-05   -0.20838E-05 13052   0.535E-02    0.957E-03
DAV:   4    -0.384606121641E+02    0.16410E-05   -0.43903E-06 13600   0.328E-02    0.175E-03
DAV:   5    -0.384606123156E+02   -0.15151E-06   -0.17053E-06 10728   0.121E-02    0.990E-04
DAV:   6    -0.384606123176E+02   -0.19800E-08   -0.13240E-07 12804   0.446E-03    0.617E-04
DAV:   7    -0.384606123114E+02    0.61686E-08   -0.14625E-08  6312   0.348E-03
  31 F= -.38460612E+02 E0= -.38460611E+02  d E =-.181506E-04
 trial-energy change:   -0.000018  1 .order   -0.000018   -0.000025   -0.000010
 step:   1.3230(harm=  1.4239)  dis= 0.00078  next Energy=   -38.460615 (dE=-0.211E-04)
 bond charge predicted
       N       E                     dE             d eps       ncg     rms          rms(c)
DAV:   1    -0.384606180737E+02   -0.57561E-05   -0.23952E-03  9884   0.285E-01    0.211E-02
DAV:   2    -0.384606182871E+02   -0.21340E-06   -0.81760E-05 11964   0.993E-02    0.109E-02
DAV:   3    -0.384606170787E+02    0.12084E-05   -0.65886E-06 13040   0.302E-02    0.537E-03
DAV:   4    -0.384606165982E+02    0.48052E-06   -0.13919E-06 13584   0.185E-02    0.980E-04
DAV:   5    -0.384606166573E+02   -0.59163E-07   -0.54089E-07 10732   0.677E-03    0.559E-04
DAV:   6    -0.384606166567E+02    0.62118E-09   -0.40002E-08 10016   0.246E-03
  32 F= -.38460617E+02 E0= -.38460616E+02  d E =-.224959E-04
 curvature:  -1.18 expect dE=-0.119E-04 dE for cont linesearch -0.134E-06
 ZBRENT: extrapolating
 opt :   1.4412  next Energy=   -38.460617 (dE=-0.226E-04)
 bond charge predicted
       N       E                     dE             d eps       ncg     rms          rms(c)
DAV:   1    -0.384606168994E+02   -0.24209E-06   -0.14823E-04  9912   0.711E-02    0.530E-03
DAV:   2    -0.384606169031E+02   -0.36425E-08   -0.50947E-06 12012   0.250E-02    0.272E-03
DAV:   3    -0.384606168653E+02    0.37808E-07   -0.41430E-07 12864   0.777E-03    0.135E-03
DAV:   4    -0.384606168499E+02    0.15329E-07   -0.87775E-08 12152   0.482E-03    0.248E-04
DAV:   5    -0.384606168583E+02   -0.83919E-08   -0.34955E-08  9136   0.191E-03
  33 F= -.38460617E+02 E0= -.38460616E+02  d E =-.226975E-04
 curvature:  -1.26 expect dE=-0.147E-04 dE for cont linesearch -0.928E-09
 trial: gam= 0.38321 g(F)=  0.756E-05 g(S)=  0.410E-05 ort = 0.195E-06 (trialstep = 0.966E+00)
 search vector abs. value=  0.193E-04
 bond charge predicted
       N       E                     dE             d eps       ncg     rms          rms(c)
DAV:   1    -0.384606313290E+02   -0.14479E-04   -0.35826E-03 10080   0.350E-01    0.281E-02
DAV:   2    -0.384606284757E+02    0.28533E-05   -0.11507E-04 11568   0.115E-01    0.136E-02
DAV:   3    -0.384606260114E+02    0.24642E-05   -0.95129E-06 13268   0.345E-02    0.676E-03
DAV:   4    -0.384606251663E+02    0.84515E-06   -0.20683E-06 13532   0.207E-02    0.130E-03
DAV:   5    -0.384606252399E+02   -0.73626E-07   -0.88777E-07 10724   0.882E-03    0.762E-04
DAV:   6    -0.384606252335E+02    0.64597E-08   -0.62672E-08 11600   0.298E-03
  34 F= -.38460625E+02 E0= -.38460624E+02  d E =-.837514E-05
 trial-energy change:   -0.000008  1 .order   -0.000009   -0.000011   -0.000006
 step:   2.0215(harm=  2.0215)  dis= 0.00066  next Energy=   -38.460629 (dE=-0.119E-04)
 bond charge predicted
       N       E                     dE             d eps       ncg     rms          rms(c)
DAV:   1    -0.384606356016E+02   -0.10362E-04   -0.42704E-03 10076   0.382E-01    0.308E-02
DAV:   2    -0.384606322287E+02    0.33729E-05   -0.13712E-04 11576   0.125E-01    0.149E-02
DAV:   3    -0.384606292869E+02    0.29418E-05   -0.11369E-05 13256   0.377E-02    0.741E-03
DAV:   4    -0.384606282823E+02    0.10046E-05   -0.24707E-06 13520   0.229E-02    0.143E-03
DAV:   5    -0.384606283686E+02   -0.86288E-07   -0.10641E-06 10708   0.979E-03    0.826E-04
DAV:   6    -0.384606283634E+02    0.51441E-08   -0.78045E-08 12376   0.337E-03
  35 F= -.38460628E+02 E0= -.38460627E+02  d E =-.115051E-04
 curvature:  -1.67 expect dE=-0.971E-05 dE for cont linesearch -0.190E-08
 trial: gam= 0.50305 g(F)=  0.492E-05 g(S)=  0.905E-06 ort = 0.148E-06 (trialstep = 0.118E+01)
 search vector abs. value=  0.109E-04
 bond charge predicted
       N       E                     dE             d eps       ncg     rms          rms(c)
DAV:   1    -0.384606454679E+02   -0.17099E-04   -0.28865E-03 10464   0.324E-01    0.328E-02
DAV:   2    -0.384606360827E+02    0.93852E-05   -0.12669E-04 12208   0.133E-01    0.153E-02
DAV:   3    -0.384606328134E+02    0.32693E-05   -0.11257E-05 12900   0.400E-02    0.762E-03
DAV:   4    -0.384606316545E+02    0.11589E-05   -0.25860E-06 13152   0.239E-02    0.183E-03
DAV:   5    -0.384606317277E+02   -0.73279E-07   -0.11516E-06 10728   0.102E-02    0.776E-04
DAV:   6    -0.384606317306E+02   -0.28840E-08   -0.10089E-07 12088   0.403E-03    0.488E-04
DAV:   7    -0.384606317241E+02    0.65202E-08   -0.12470E-08  6268   0.255E-03
  36 F= -.38460632E+02 E0= -.38460631E+02  d E =-.336065E-05
 trial-energy change:   -0.000003  1 .order   -0.000003   -0.000007    0.000000
 step:   1.1405(harm=  1.1405)  dis= 0.00047  next Energy=   -38.460632 (dE=-0.337E-05)
 bond charge predicted
       N       E                     dE             d eps       ncg     rms          rms(c)
DAV:   1    -0.384606317350E+02   -0.43351E-08   -0.27877E-06 10696   0.102E-02    0.102E-03
DAV:   2    -0.384606317315E+02    0.34702E-08   -0.12582E-07 12176   0.427E-03    0.477E-04
DAV:   3    -0.384606317223E+02    0.91577E-08   -0.84104E-09  5956   0.128E-03
  37 F= -.38460632E+02 E0= -.38460631E+02  d E =-.335888E-05
 curvature:  -1.05 expect dE=-0.447E-05 dE for cont linesearch -0.380E-09
 trial: gam= 0.75591 g(F)=  0.309E-05 g(S)=  0.116E-05 ort = 0.627E-07 (trialstep = 0.117E+01)
 search vector abs. value=  0.106E-04
 bond charge predicted
       N       E                     dE             d eps       ncg     rms          rms(c)
DAV:   1    -0.384606561185E+02   -0.24387E-04   -0.27574E-03 11500   0.396E-01    0.436E-02
DAV:   2    -0.384606375423E+02    0.18576E-04   -0.23698E-04 11628   0.212E-01    0.178E-02
DAV:   3    -0.384606340676E+02    0.34748E-05   -0.19752E-05 13808   0.570E-02    0.869E-03
DAV:   4    -0.384606325251E+02    0.15425E-05   -0.34953E-06 13852   0.286E-02    0.262E-03
DAV:   5    -0.384606325138E+02    0.11312E-07   -0.12370E-06 11728   0.117E-02    0.796E-04
DAV:   6    -0.384606325311E+02   -0.17293E-07   -0.22654E-07 11076   0.479E-03    0.566E-04
DAV:   7    -0.384606325239E+02    0.71614E-08   -0.17481E-08  7416   0.247E-03
  38 F= -.38460633E+02 E0= -.38460632E+02  d E =-.801591E-06
 trial-energy change:   -0.000001  1 .order   -0.000002   -0.000005    0.000002
 step:   0.6619(harm=  0.8376)  dis= 0.00029  next Energy=   -38.460633 (dE=-0.129E-05)
 bond charge predicted
       N       E                     dE             d eps       ncg     rms          rms(c)
DAV:   1    -0.384606372687E+02   -0.47377E-05   -0.51961E-04 11484   0.172E-01    0.189E-02
DAV:   2    -0.384606339421E+02    0.33267E-05   -0.44767E-05 11612   0.924E-02    0.775E-03
DAV:   3    -0.384606331068E+02    0.83524E-06   -0.37153E-06 13828   0.247E-02    0.377E-03
DAV:   4    -0.384606327523E+02    0.35450E-06   -0.65196E-07 13840   0.123E-02    0.113E-03
DAV:   5    -0.384606327126E+02    0.39749E-07   -0.23206E-07 11724   0.503E-03    0.342E-04
DAV:   6    -0.384606327129E+02   -0.36744E-09   -0.40453E-08  8988   0.208E-03
  39 F= -.38460633E+02 E0= -.38460632E+02  d E =-.990613E-06
 curvature:  -0.74 expect dE=-0.962E-06 dE for cont linesearch -0.937E-07
 trial: gam= 0.05134 g(F)=  0.115E-05 g(S)=  0.143E-06 ort = 0.116E-05 (trialstep = 0.107E+01)
 search vector abs. value=  0.144E-05
 bond charge predicted
       N       E                     dE             d eps       ncg     rms          rms(c)
DAV:   1    -0.384606350440E+02   -0.23315E-05   -0.32846E-04  9920   0.104E-01    0.627E-03
DAV:   2    -0.384606353357E+02   -0.29166E-06   -0.97671E-06 11792   0.297E-02    0.374E-03
DAV:   3    -0.384606351151E+02    0.22063E-06   -0.78971E-07 13456   0.101E-02    0.180E-03
DAV:   4    -0.384606350258E+02    0.89298E-07   -0.16822E-07 12336   0.583E-03    0.419E-04
DAV:   5    -0.384606350199E+02    0.58844E-08   -0.58934E-08 10732   0.206E-03
  40 F= -.38460635E+02 E0= -.38460634E+02  d E =-.230693E-05
 trial-energy change:   -0.000002  1 .order   -0.000001   -0.000001   -0.000000
 step:   1.1042(harm=  1.3847)  dis= 0.00010  next Energy=   -38.460635 (dE=-0.231E-05)
 bond charge predicted
       N       E                     dE             d eps       ncg     rms          rms(c)
DAV:   1    -0.384606350318E+02   -0.60154E-08   -0.37610E-07 11168   0.358E-03    0.262E-04
DAV:   2    -0.384606350312E+02    0.60345E-09   -0.99127E-09  6212   0.112E-03
  41 F= -.38460635E+02 E0= -.38460634E+02  d E =-.231823E-05
 curvature:  -0.16 expect dE=-0.115E-06 dE for cont linesearch -0.787E-08
 trial: gam= 0.40321 g(F)=  0.597E-06 g(S)=  0.133E-06 ort = 0.269E-06 (trialstep = 0.108E+01)
 search vector abs. value=  0.118E-05
 bond charge predicted
       N       E                     dE             d eps       ncg     rms          rms(c)
DAV:   1    -0.384606344716E+02    0.56013E-06   -0.27718E-04 10196   0.981E-02    0.730E-03
DAV:   2    -0.384606343002E+02    0.17149E-06   -0.95595E-06 11600   0.333E-02    0.367E-03
DAV:   3    -0.384606342295E+02    0.70638E-07   -0.77389E-07 13244   0.102E-02    0.182E-03
DAV:   4    -0.384606341860E+02    0.43518E-07   -0.15719E-07 12920   0.589E-03    0.526E-04
DAV:   5    -0.384606341998E+02   -0.13828E-07   -0.65815E-08 10716   0.265E-03    0.177E-04
DAV:   6    -0.384606342000E+02   -0.11914E-09   -0.66280E-09  6176   0.116E-03
  42 F= -.38460634E+02 E0= -.38460633E+02  d E =0.831219E-06
 trial-energy change:    0.000001  1 .order   -0.000001   -0.000001   -0.000000
 step:   1.9955(harm=  1.9955)  dis= 0.00017  next Energy=   -38.460636 (dE=-0.837E-06)
 bond charge predicted
       N       E                     dE             d eps       ncg     rms          rms(c)
DAV:   1    -0.384606346067E+02   -0.40689E-06   -0.20278E-04 10208   0.840E-02    0.625E-03
DAV:   2    -0.384606344811E+02    0.12566E-06   -0.70107E-06 11648   0.286E-02    0.314E-03
DAV:   3    -0.384606344364E+02    0.44665E-07   -0.56741E-07 13196   0.874E-03    0.156E-03
DAV:   4    -0.384606344072E+02    0.29169E-07   -0.11412E-07 12600   0.504E-03    0.449E-04
DAV:   5    -0.384606344184E+02   -0.11163E-07   -0.48179E-08 10416   0.229E-03    0.151E-04
DAV:   6    -0.384606344194E+02   -0.96907E-09   -0.50571E-09  6120   0.102E-03
  43 F= -.38460634E+02 E0= -.38460634E+02  d E =0.611812E-06
 curvature:  -1.41 expect dE=-0.146E-05 dE for cont linesearch -0.109E-08
 trial: gam= 1.63049 g(F)=  0.812E-06 g(S)=  0.229E-06 ort = 0.303E-07 (trialstep = 0.348E+00)
 search vector abs. value=  0.428E-05
 bond charge predicted
       N       E                     dE             d eps       ncg     rms          rms(c)
DAV:   1    -0.384606363607E+02   -0.19423E-05   -0.10446E-04 10244   0.582E-02    0.429E-03
DAV:   2    -0.384606362799E+02    0.80805E-07   -0.29719E-06 11656   0.200E-02    0.217E-03
DAV:   3    -0.384606362470E+02    0.32833E-07   -0.26230E-07 13260   0.585E-03    0.107E-03
DAV:   4    -0.384606362270E+02    0.20030E-07   -0.55091E-08 10984   0.322E-03    0.229E-04
DAV:   5    -0.384606362304E+02   -0.33660E-08   -0.22593E-08  7304   0.151E-03
  44 F= -.38460636E+02 E0= -.38460635E+02  d E =-.181103E-05
 trial-energy change:   -0.000002  1 .order   -0.000000   -0.000000   -0.000000
 step:   1.3047(harm=  1.3047)  dis= 0.00024  next Energy=   -38.460635 (dE=-0.711E-06)
 bond charge predicted
       N       E                     dE             d eps       ncg     rms          rms(c)
DAV:   1    -0.384606375084E+02   -0.12814E-05   -0.79104E-04 10280   0.160E-01    0.118E-02
DAV:   2    -0.384606370284E+02    0.48000E-06   -0.22549E-05 11668   0.549E-02    0.596E-03
DAV:   3    -0.384606366694E+02    0.35901E-06   -0.19885E-06 13308   0.160E-02    0.294E-03
DAV:   4    -0.384606365125E+02    0.15689E-06   -0.42805E-07 13180   0.874E-03    0.628E-04
DAV:   5    -0.384606365284E+02   -0.15912E-07   -0.16424E-07 10712   0.389E-03    0.299E-04
DAV:   6    -0.384606365253E+02    0.31096E-08   -0.11716E-08  6256   0.149E-03
  45 F= -.38460637E+02 E0= -.38460636E+02  d E =-.210596E-05
 curvature:  -2.56 expect dE=-0.240E-05 dE for cont linesearch -0.411E-08
 trial: gam= 0.93210 g(F)=  0.752E-06 g(S)=  0.185E-06 ort =-0.829E-07 (trialstep = 0.513E+00)
 search vector abs. value=  0.450E-05
 bond charge predicted
       N       E                     dE             d eps       ncg     rms          rms(c)
DAV:   1    -0.384606373184E+02   -0.78995E-06   -0.23115E-04 10296   0.791E-02    0.585E-03
DAV:   2    -0.384606371345E+02    0.18386E-06   -0.35491E-06 12412   0.196E-02    0.362E-03
DAV:   3    -0.384606368172E+02    0.31729E-06   -0.36914E-07 14216   0.967E-03    0.742E-04
DAV:   4    -0.384606368204E+02   -0.31760E-08   -0.15000E-07 10716   0.423E-03    0.259E-04
DAV:   5    -0.384606368213E+02   -0.88357E-09   -0.17332E-08  6544   0.160E-03
  46 F= -.38460637E+02 E0= -.38460636E+02  d E =-.295970E-06
 trial-energy change:   -0.000000  1 .order   -0.000000   -0.000000   -0.000000
 step:   1.3062(harm=  1.3062)  dis= 0.00021  next Energy=   -38.460637 (dE=-0.562E-06)
 bond charge predicted
       N       E                     dE             d eps       ncg     rms          rms(c)
DAV:   1    -0.384606380842E+02   -0.12638E-05   -0.55398E-04 10272   0.122E-01    0.906E-03
DAV:   2    -0.384606376611E+02    0.42307E-06   -0.84846E-06 12404   0.302E-02    0.561E-03
DAV:   3    -0.384606369550E+02    0.70614E-06   -0.88085E-07 14396   0.147E-02    0.115E-03
DAV:   4    -0.384606369629E+02   -0.78971E-08   -0.36074E-07 10692   0.673E-03    0.409E-04
DAV:   5    -0.384606369664E+02   -0.35338E-08   -0.45655E-08  9664   0.267E-03
  47 F= -.38460637E+02 E0= -.38460636E+02  d E =-.441120E-06
 curvature:  -3.42 expect dE=-0.210E-05 dE for cont linesearch -0.390E-10
 trial: gam= 0.42962 g(F)=  0.465E-06 g(S)=  0.148E-06 ort = 0.716E-08 (trialstep = 0.671E+00)
 search vector abs. value=  0.145E-05
 bond charge predicted
       N       E                     dE             d eps       ncg     rms          rms(c)
DAV:   1    -0.384606375455E+02   -0.58259E-06   -0.12706E-04 10212   0.694E-02    0.575E-03
DAV:   2    -0.384606373776E+02    0.16794E-06   -0.50036E-06 11264   0.264E-02    0.267E-03
DAV:   3    -0.384606373501E+02    0.27444E-07   -0.43330E-07 14132   0.746E-03    0.131E-03
DAV:   4    -0.384606373300E+02    0.20124E-07   -0.61916E-08 11008   0.395E-03    0.339E-04
DAV:   5    -0.384606373391E+02   -0.90745E-08   -0.31077E-08  8808   0.153E-03
  48 F= -.38460637E+02 E0= -.38460636E+02  d E =-.372625E-06
 trial-energy change:   -0.000000  1 .order   -0.000000   -0.000000   -0.000000
 step:   2.5185(harm=  2.5185)  dis= 0.00026  next Energy=   -38.460638 (dE=-0.775E-06)
 bond charge predicted
       N       E                     dE             d eps       ncg     rms          rms(c)
DAV:   1    -0.384606394895E+02   -0.21595E-05   -0.96113E-04 10204   0.191E-01    0.158E-02
DAV:   2    -0.384606382880E+02    0.12015E-05   -0.37739E-05 11280   0.723E-02    0.731E-03
DAV:   3    -0.384606378512E+02    0.43679E-06   -0.32814E-06 14148   0.204E-02    0.358E-03
DAV:   4    -0.384606376421E+02    0.20910E-06   -0.48651E-07 13716   0.105E-02    0.918E-04
DAV:   5    -0.384606376661E+02   -0.24024E-07   -0.21420E-07 11048   0.374E-03    0.323E-04
DAV:   6    -0.384606376667E+02   -0.56343E-09   -0.14135E-08  6280   0.143E-03
  49 F= -.38460638E+02 E0= -.38460637E+02  d E =-.700243E-06
 curvature:  -2.97 expect dE=-0.239E-05 dE for cont linesearch -0.233E-07
 trial: gam= 0.00000 g(F)=  0.627E-06 g(S)=  0.181E-06 ort =-0.107E-06 (trialstep = 0.104E+01)
 search vector abs. value=  0.807E-06
 bond charge predicted
       N       E                     dE             d eps       ncg     rms          rms(c)
DAV:   1    -0.384606397429E+02   -0.20768E-05   -0.15929E-04 11232   0.848E-02    0.777E-03
DAV:   2    -0.384606397460E+02   -0.30791E-08   -0.12684E-05 12104   0.410E-02    0.424E-03
DAV:   3    -0.384606395120E+02    0.23398E-06   -0.10951E-06 12860   0.124E-02    0.207E-03
DAV:   4    -0.384606393786E+02    0.13347E-06   -0.20773E-07 13208   0.788E-03    0.561E-04
DAV:   5    -0.384606393619E+02    0.16660E-07   -0.77696E-08 10808   0.264E-03    0.195E-04
DAV:   6    -0.384606393590E+02    0.28986E-08   -0.78620E-09  6172   0.117E-03
  50 F= -.38460639E+02 E0= -.38460638E+02  d E =-.169232E-05
 trial-energy change:   -0.000002  1 .order   -0.000000   -0.000001    0.000001
 step:   0.9856(harm=  0.6349)  dis= 0.00008  next Energy=   -38.460639 (dE=-0.171E-05)
 bond charge predicted
       N       E                     dE             d eps       ncg     rms          rms(c)
DAV:   1    -0.384606377485E+02    0.16134E-05   -0.43330E-07 11180   0.455E-03    0.401E-04
DAV:   2    -0.384606377490E+02   -0.51887E-09   -0.34016E-08 10156   0.212E-03
  51 F= -.38460638E+02 E0= -.38460637E+02  d E =-.823461E-07
 curvature:  -0.08 expect dE=-0.437E-07 dE for cont linesearch -0.147E-07
 trial: gam= 0.00000 g(F)=  0.476E-06 g(S)=  0.667E-07 ort =-0.384E-06 (trialstep = 0.103E+01)
 search vector abs. value=  0.543E-06
 reached required accuracy - stopping structural energy minimisation
 writing wavefunctions
Mon Jan  3 23:47:32 CST 2022
