Mon Jan  3 23:19:09 CST 2022
 running on   48 total cores
 distrk:  each k-point on   48 cores,    1 groups
 distr:  one band on   24 cores,    2 groups
 using from now: INCAR     
 vasp.5.3.5 31Mar14 (build Jan 11 2016 19:50:55) complex                        
  
 POSCAR found type information on POSCAR  Zn Ga N  O 
 POSCAR found :  4 types and       8 ions
 scaLAPACK will be used

 ----------------------------------------------------------------------------- 
|                                                                             |
|           W    W    AA    RRRRR   N    N  II  N    N   GGGG   !!!           |
|           W    W   A  A   R    R  NN   N  II  NN   N  G    G  !!!           |
|           W    W  A    A  R    R  N N  N  II  N N  N  G       !!!           |
|           W WW W  AAAAAA  RRRRR   N  N N  II  N  N N  G  GGG   !            |
|           WW  WW  A    A  R   R   N   NN  II  N   NN  G    G                |
|           W    W  A    A  R    R  N    N  II  N    N   GGGG   !!!           |
|                                                                             |
|      For optimal performance we recommend to set                            |
|        NCORE= 4 - approx SQRT( number of cores)                             |
|      NCORE specifies how many cores store one orbital (NPAR=cpu/NCORE).     |
|      This setting can  greatly improve the performance of VASP for DFT.     |
|      The default, NPAR=number of cores might be grossly inefficient         |
|      on modern multi-core architectures or massively parallel machines.     |
|      Do your own testing !!!!                                               |
|      Unfortunately you need to use the default for GW and RPA calculations. |
|      (for HF NCORE is supported but not extensively tested yet)             |
|                                                                             |
 ----------------------------------------------------------------------------- 

 LDA part: xc-table for Pade appr. of Perdew
 POSCAR, INCAR and KPOINTS ok, starting setup
 WARNING: small aliasing (wrap around) errors must be expected
 FFT: planning ...
 WAVECAR not read
 entering main loop
       N       E                     dE             d eps       ncg     rms          rms(c)
DAV:   1     0.904611717851E+03    0.90461E+03   -0.42112E+04 10312   0.341E+03
DAV:   2     0.144109889145E+03   -0.76050E+03   -0.73057E+03  9888   0.799E+02
DAV:   3    -0.295362851832E+02   -0.17365E+03   -0.16836E+03 11204   0.271E+02
DAV:   4    -0.444375164630E+02   -0.14901E+02   -0.14715E+02 11820   0.801E+01
DAV:   5    -0.449257908188E+02   -0.48827E+00   -0.48604E+00 12744   0.144E+01    0.154E+01
DAV:   6    -0.385266725004E+02    0.63991E+01   -0.20378E+01 18840   0.777E+01    0.752E+00
DAV:   7    -0.389606146781E+02   -0.43394E+00   -0.69426E+00 10676   0.195E+01    0.479E+00
DAV:   8    -0.389272413287E+02    0.33373E-01   -0.13038E+00 15512   0.997E+00    0.207E+00
DAV:   9    -0.388804068823E+02    0.46834E-01   -0.26566E-01 15408   0.884E+00    0.478E-01
DAV:  10    -0.388821140684E+02   -0.17072E-02   -0.57610E-02 12660   0.216E+00    0.257E-01
DAV:  11    -0.388824503542E+02   -0.33629E-03   -0.51121E-03 11828   0.850E-01    0.112E-01
DAV:  12    -0.388826265256E+02   -0.17617E-03   -0.74472E-04 13144   0.399E-01    0.368E-02
DAV:  13    -0.388826458940E+02   -0.19368E-04   -0.14517E-04 11440   0.145E-01    0.183E-02
DAV:  14    -0.388826513164E+02   -0.54224E-05   -0.40098E-05 12440   0.423E-02    0.910E-03
DAV:  15    -0.388826530114E+02   -0.16950E-05   -0.83309E-06 13248   0.363E-02    0.365E-03
DAV:  16    -0.388826538393E+02   -0.82790E-06   -0.25732E-06 10796   0.112E-02    0.252E-03
DAV:  17    -0.388826537973E+02    0.41991E-07   -0.28623E-07 12428   0.360E-03    0.136E-03
DAV:  18    -0.388826537645E+02    0.32775E-07   -0.13612E-07 13744   0.270E-03    0.396E-04
DAV:  19    -0.388826537322E+02    0.32336E-07   -0.23410E-08  8256   0.157E-03    0.172E-04
DAV:  20    -0.388826537388E+02   -0.66016E-08   -0.60518E-09  6016   0.120E-03
   1 F= -.38882654E+02 E0= -.38877905E+02  d E =-.388827E+02
 curvature:   0.00 expect dE= 0.000E+00 dE for cont linesearch  0.000E+00
 trial: gam= 0.00000 g(F)=  0.292E-02 g(S)=  0.102E-02 ort = 0.000E+00 (trialstep = 0.100E+01)
 search vector abs. value=  0.395E-02
 bond charge predicted
       N       E                     dE             d eps       ncg     rms          rms(c)
DAV:   1    -0.388848186405E+02   -0.21649E-02   -0.70104E-01 10644   0.478E+00    0.373E-01
DAV:   2    -0.388853641781E+02   -0.54554E-03   -0.28038E-02 12300   0.143E+00    0.229E-01
DAV:   3    -0.388843176146E+02    0.10466E-02   -0.24241E-03 13048   0.553E-01    0.801E-02
DAV:   4    -0.388842797335E+02    0.37881E-04   -0.79178E-04 10916   0.270E-01    0.249E-02
DAV:   5    -0.388842858035E+02   -0.60699E-05   -0.10859E-04 11960   0.997E-02    0.151E-02
DAV:   6    -0.388842849696E+02    0.83386E-06   -0.13794E-05 12184   0.551E-02    0.750E-03
DAV:   7    -0.388842849101E+02    0.59537E-07   -0.41590E-06 13680   0.326E-02    0.265E-03
DAV:   8    -0.388842850074E+02   -0.97297E-07   -0.11626E-06 12180   0.781E-03    0.142E-03
DAV:   9    -0.388842850088E+02   -0.14470E-08   -0.13237E-07 12156   0.395E-03    0.774E-04
DAV:  10    -0.388842850218E+02   -0.12993E-07   -0.40339E-08 10920   0.192E-03    0.235E-04
DAV:  11    -0.388842850309E+02   -0.90463E-08   -0.12488E-08  6000   0.154E-03
   2 F= -.38884285E+02 E0= -.38879772E+02  d E =-.163129E-02
 trial-energy change:   -0.001631  1 .order   -0.001636   -0.003946    0.000675
 step:   0.8539(harm=  0.8539)  dis= 0.00434  next Energy=   -38.884339 (dE=-0.168E-02)
 bond charge predicted
       N       E                     dE             d eps       ncg     rms          rms(c)
DAV:   1    -0.388843459444E+02   -0.60923E-04   -0.14939E-02 10604   0.697E-01    0.543E-02
DAV:   2    -0.388843573142E+02   -0.11370E-04   -0.59606E-04 12376   0.207E-01    0.334E-02
DAV:   3    -0.388843348259E+02    0.22488E-04   -0.51981E-05 13072   0.773E-02    0.112E-02
DAV:   4    -0.388843340572E+02    0.76872E-06   -0.16475E-05 10944   0.386E-02    0.350E-03
DAV:   5    -0.388843341033E+02   -0.46166E-07   -0.22481E-06 11924   0.157E-02    0.218E-03
DAV:   6    -0.388843340412E+02    0.62107E-07   -0.31827E-07 12256   0.922E-03    0.112E-03
DAV:   7    -0.388843340126E+02    0.28624E-07   -0.89829E-08 12372   0.475E-03    0.391E-04
DAV:   8    -0.388843340082E+02    0.43842E-08   -0.26920E-08  8392   0.120E-03
   3 F= -.38884334E+02 E0= -.38879791E+02  d E =-.168027E-02
 curvature:  -0.43 expect dE=-0.610E-03 dE for cont linesearch -0.274E-08
 trial: gam= 0.36355 g(F)=  0.126E-02 g(S)=  0.170E-03 ort =-0.503E-05 (trialstep = 0.971E+00)
 search vector abs. value=  0.195E-02
 bond charge predicted
       N       E                     dE             d eps       ncg     rms          rms(c)
DAV:   1    -0.388856286779E+02   -0.12947E-02   -0.33476E-01 10500   0.366E+00    0.298E-01
DAV:   2    -0.388854468999E+02    0.18178E-03   -0.17335E-02 11888   0.167E+00    0.141E-01
DAV:   3    -0.388852695070E+02    0.17739E-03   -0.13982E-03 13264   0.456E-01    0.703E-02
DAV:   4    -0.388851757321E+02    0.93775E-04   -0.24713E-04 14172   0.212E-01    0.145E-02
DAV:   5    -0.388851790008E+02   -0.32688E-05   -0.80827E-05 10684   0.890E-02    0.588E-03
DAV:   6    -0.388851791185E+02   -0.11770E-06   -0.55710E-06 12560   0.275E-02    0.377E-03
DAV:   7    -0.388851789801E+02    0.13846E-06   -0.72953E-07 13024   0.196E-02    0.178E-03
DAV:   8    -0.388851789211E+02    0.58942E-07   -0.26961E-07 13168   0.518E-03    0.544E-04
DAV:   9    -0.388851789002E+02    0.20889E-07   -0.43797E-08  9876   0.265E-03    0.306E-04
DAV:  10    -0.388851788887E+02    0.11527E-07   -0.10615E-08  6124   0.106E-03    0.126E-04
DAV:  11    -0.388851788808E+02    0.79335E-08   -0.20945E-09  5856   0.623E-04
   4 F= -.38885179E+02 E0= -.38880694E+02  d E =-.844873E-03
 trial-energy change:   -0.000845  1 .order   -0.000843   -0.001386   -0.000301
 step:   1.2397(harm=  1.2397)  dis= 0.00311  next Energy=   -38.885219 (dE=-0.885E-03)
 bond charge predicted
       N       E                     dE             d eps       ncg     rms          rms(c)
DAV:   1    -0.388852539575E+02   -0.75069E-04   -0.25727E-02 10528   0.102E+00    0.827E-02
DAV:   2    -0.388852398962E+02    0.14061E-04   -0.13356E-03 11880   0.465E-01    0.390E-02
DAV:   3    -0.388852268137E+02    0.13082E-04   -0.10751E-04 13348   0.126E-01    0.195E-02
DAV:   4    -0.388852199335E+02    0.68803E-05   -0.18990E-05 14144   0.586E-02    0.407E-03
DAV:   5    -0.388852202600E+02   -0.32655E-06   -0.61776E-06 10724   0.245E-02    0.165E-03
DAV:   6    -0.388852202605E+02   -0.42382E-09   -0.44251E-07 12552   0.786E-03    0.105E-03
DAV:   7    -0.388852202334E+02    0.27052E-07   -0.54913E-08 10684   0.549E-03    0.498E-04
DAV:   8    -0.388852202151E+02    0.18338E-07   -0.18892E-08  6560   0.145E-03    0.139E-04
DAV:   9    -0.388852202096E+02    0.54492E-08   -0.65517E-09  5924   0.880E-04
   5 F= -.38885220E+02 E0= -.38880745E+02  d E =-.886201E-03
 curvature:  -0.85 expect dE=-0.240E-03 dE for cont linesearch -0.226E-08
 trial: gam= 0.19059 g(F)=  0.187E-03 g(S)=  0.960E-04 ort =-0.228E-05 (trialstep = 0.102E+01)
 search vector abs. value=  0.353E-03
 bond charge predicted
       N       E                     dE             d eps       ncg     rms          rms(c)
DAV:   1    -0.388859180786E+02   -0.69786E-03   -0.69154E-02 12480   0.202E+00    0.206E-01
DAV:   2    -0.388855144254E+02    0.40365E-03   -0.55391E-03 12100   0.990E-01    0.858E-02
DAV:   3    -0.388854303125E+02    0.84113E-04   -0.42951E-04 13032   0.261E-01    0.412E-02
DAV:   4    -0.388853937099E+02    0.36603E-04   -0.71642E-05 14272   0.125E-01    0.108E-02
DAV:   5    -0.388853929012E+02    0.80877E-06   -0.27540E-05 11292   0.458E-02    0.315E-03
DAV:   6    -0.388853929299E+02   -0.28772E-07   -0.15225E-06 11956   0.123E-02    0.183E-03
DAV:   7    -0.388853929688E+02   -0.38885E-07   -0.20118E-07 12580   0.848E-03    0.104E-03
DAV:   8    -0.388853930122E+02   -0.43402E-07   -0.79404E-08 10648   0.395E-03    0.297E-04
DAV:   9    -0.388853930307E+02   -0.18536E-07   -0.21002E-08  7324   0.111E-03    0.152E-04
DAV:  10    -0.388853930394E+02   -0.86347E-08   -0.38289E-09  5860   0.626E-04
   6 F= -.38885393E+02 E0= -.38880881E+02  d E =-.172830E-03
 trial-energy change:   -0.000173  1 .order   -0.000179   -0.000290   -0.000069
 step:   1.4461(harm=  1.3422)  dis= 0.00162  next Energy=   -38.885407 (dE=-0.186E-03)
 bond charge predicted
       N       E                     dE             d eps       ncg     rms          rms(c)
DAV:   1    -0.388854918356E+02   -0.98805E-04   -0.11691E-02 12456   0.830E-01    0.847E-02
DAV:   2    -0.388854236402E+02    0.68195E-04   -0.93816E-04 12092   0.408E-01    0.353E-02
DAV:   3    -0.388854090107E+02    0.14629E-04   -0.72813E-05 13032   0.108E-01    0.170E-02
DAV:   4    -0.388854025935E+02    0.64171E-05   -0.12187E-05 14300   0.515E-02    0.444E-03
DAV:   5    -0.388854023607E+02    0.23280E-06   -0.46636E-06 11284   0.188E-02    0.130E-03
DAV:   6    -0.388854023691E+02   -0.83382E-08   -0.25630E-07 11912   0.503E-03    0.756E-04
DAV:   7    -0.388854023889E+02   -0.19804E-07   -0.32034E-08  9416   0.348E-03    0.427E-04
DAV:   8    -0.388854024065E+02   -0.17580E-07   -0.12490E-08  6116   0.166E-03    0.116E-04
DAV:   9    -0.388854024148E+02   -0.83000E-08   -0.59974E-09  5784   0.564E-04
   7 F= -.38885402E+02 E0= -.38880875E+02  d E =-.182205E-03
 curvature:  -0.75 expect dE=-0.115E-03 dE for cont linesearch -0.107E-05
 trial: gam= 0.62422 g(F)=  0.106E-03 g(S)=  0.487E-04 ort =-0.225E-04 (trialstep = 0.111E+01)
 search vector abs. value=  0.264E-03
 bond charge predicted
       N       E                     dE             d eps       ncg     rms          rms(c)
DAV:   1    -0.388855425457E+02   -0.14014E-03   -0.60977E-02  9868   0.139E+00    0.976E-02
DAV:   2    -0.388855726626E+02   -0.30117E-04   -0.17390E-03 12608   0.353E-01    0.575E-02
DAV:   3    -0.388855091110E+02    0.63552E-04   -0.95492E-05 13088   0.137E-01    0.214E-02
DAV:   4    -0.388855042904E+02    0.48206E-05   -0.50428E-05 10760   0.769E-02    0.590E-03
DAV:   5    -0.388855046668E+02   -0.37636E-06   -0.10009E-05 11900   0.382E-02    0.350E-03
DAV:   6    -0.388855046714E+02   -0.45720E-08   -0.14321E-06 12172   0.178E-02    0.212E-03
DAV:   7    -0.388855046720E+02   -0.62300E-09   -0.27332E-07 12224   0.628E-03    0.113E-03
DAV:   8    -0.388855046779E+02   -0.59185E-08   -0.84839E-08 11136   0.355E-03
   8 F= -.38885505E+02 E0= -.38880980E+02  d E =-.102263E-03
 trial-energy change:   -0.000102  1 .order   -0.000103   -0.000155   -0.000051
 step:   1.7247(harm=  1.6576)  dis= 0.00173  next Energy=   -38.885519 (dE=-0.116E-03)
 bond charge predicted
       N       E                     dE             d eps       ncg     rms          rms(c)
DAV:   1    -0.388855288312E+02   -0.24159E-04   -0.18802E-02  9868   0.770E-01    0.542E-02
DAV:   2    -0.388855381563E+02   -0.93251E-05   -0.53603E-04 12616   0.197E-01    0.319E-02
DAV:   3    -0.388855185600E+02    0.19596E-04   -0.29488E-05 13088   0.776E-02    0.119E-02
DAV:   4    -0.388855170637E+02    0.14964E-05   -0.15720E-05 10768   0.438E-02    0.329E-03
DAV:   5    -0.388855171778E+02   -0.11417E-06   -0.31503E-06 11936   0.214E-02    0.197E-03
DAV:   6    -0.388855171789E+02   -0.10668E-08   -0.45154E-07 12152   0.993E-03    0.118E-03
DAV:   7    -0.388855171799E+02   -0.10355E-08   -0.85593E-08 11184   0.352E-03
   9 F= -.38885517E+02 E0= -.38880994E+02  d E =-.114765E-03
 curvature:  -1.54 expect dE=-0.107E-03 dE for cont linesearch -0.257E-06
 trial: gam= 0.34112 g(F)=  0.530E-04 g(S)=  0.170E-04 ort =-0.665E-05 (trialstep = 0.123E+01)
 search vector abs. value=  0.961E-04
 bond charge predicted
       N       E                     dE             d eps       ncg     rms          rms(c)
DAV:   1    -0.388856065191E+02   -0.89340E-04   -0.28966E-02  9996   0.104E+00    0.785E-02
DAV:   2    -0.388855855989E+02    0.20920E-04   -0.11124E-03 11248   0.415E-01    0.390E-02
DAV:   3    -0.388855758666E+02    0.97324E-05   -0.97063E-05 12500   0.130E-01    0.195E-02
DAV:   4    -0.388855704518E+02    0.54148E-05   -0.19617E-05 13692   0.558E-02    0.588E-03
DAV:   5    -0.388855704556E+02   -0.38322E-08   -0.56077E-06 11048   0.211E-02    0.217E-03
DAV:   6    -0.388855705070E+02   -0.51353E-07   -0.98341E-07 13592   0.801E-03    0.130E-03
DAV:   7    -0.388855704921E+02    0.14878E-07   -0.87571E-08 11692   0.519E-03    0.691E-04
DAV:   8    -0.388855704743E+02    0.17801E-07   -0.32332E-08 10244   0.179E-03    0.260E-04
DAV:   9    -0.388855704655E+02    0.88344E-08   -0.96017E-09  5844   0.902E-04
  10 F= -.38885570E+02 E0= -.38881052E+02  d E =-.532855E-04
 trial-energy change:   -0.000053  1 .order   -0.000053   -0.000083   -0.000022
 step:   1.6671(harm=  1.6873)  dis= 0.00132  next Energy=   -38.885574 (dE=-0.573E-04)
 bond charge predicted
       N       E                     dE             d eps       ncg     rms          rms(c)
DAV:   1    -0.388855788508E+02   -0.83765E-05   -0.36138E-03  9996   0.367E-01    0.277E-02
DAV:   2    -0.388855762387E+02    0.26121E-05   -0.13891E-04 11224   0.147E-01    0.138E-02
DAV:   3    -0.388855752133E+02    0.10254E-05   -0.12138E-05 12464   0.458E-02    0.689E-03
DAV:   4    -0.388855746584E+02    0.55484E-06   -0.24563E-06 13692   0.197E-02    0.208E-03
DAV:   5    -0.388855746913E+02   -0.32820E-07   -0.70099E-07 11052   0.745E-03    0.768E-04
DAV:   6    -0.388855747036E+02   -0.12388E-07   -0.12257E-07 13572   0.282E-03    0.460E-04
DAV:   7    -0.388855746994E+02    0.42655E-08   -0.92191E-09  6028   0.184E-03
  11 F= -.38885575E+02 E0= -.38881057E+02  d E =-.575194E-04
 curvature:  -1.20 expect dE=-0.361E-04 dE for cont linesearch -0.171E-08
 trial: gam= 0.40903 g(F)=  0.183E-04 g(S)=  0.118E-04 ort = 0.371E-06 (trialstep = 0.132E+01)
 search vector abs. value=  0.465E-04
 bond charge predicted
       N       E                     dE             d eps       ncg     rms          rms(c)
DAV:   1    -0.388856614151E+02   -0.86711E-04   -0.16803E-02 11068   0.933E-01    0.830E-02
DAV:   2    -0.388856153232E+02    0.46092E-04   -0.11324E-03 11308   0.447E-01    0.342E-02
DAV:   3    -0.388856048670E+02    0.10456E-04   -0.77074E-05 13776   0.111E-01    0.162E-02
DAV:   4    -0.388855990065E+02    0.58605E-05   -0.99575E-06 14100   0.468E-02    0.473E-03
DAV:   5    -0.388855986150E+02    0.39143E-06   -0.37344E-06 11328   0.156E-02    0.111E-03
DAV:   6    -0.388855986256E+02   -0.10605E-07   -0.22969E-07 12520   0.498E-03    0.757E-04
DAV:   7    -0.388855986392E+02   -0.13551E-07   -0.21248E-08  8068   0.299E-03    0.447E-04
DAV:   8    -0.388855986694E+02   -0.30205E-07   -0.10328E-08  6000   0.120E-03    0.131E-04
DAV:   9    -0.388855986774E+02   -0.80345E-08   -0.73261E-09  5688   0.942E-04
  12 F= -.38885599E+02 E0= -.38881081E+02  d E =-.239780E-04
 trial-energy change:   -0.000024  1 .order   -0.000024   -0.000040   -0.000008
 step:   1.6517(harm=  1.6517)  dis= 0.00067  next Energy=   -38.885600 (dE=-0.250E-04)
 bond charge predicted
       N       E                     dE             d eps       ncg     rms          rms(c)
DAV:   1    -0.388856038559E+02   -0.51865E-05   -0.10684E-03 11048   0.235E-01    0.209E-02
DAV:   2    -0.388856009712E+02    0.28847E-05   -0.71831E-05 11308   0.113E-01    0.862E-03
DAV:   3    -0.388856001713E+02    0.79992E-06   -0.49003E-06 13740   0.280E-02    0.409E-03
DAV:   4    -0.388855997278E+02    0.44342E-06   -0.63737E-07 14096   0.118E-02    0.119E-03
DAV:   5    -0.388855996724E+02    0.55489E-07   -0.23843E-07 11328   0.396E-03    0.282E-04
DAV:   6    -0.388855996750E+02   -0.25925E-08   -0.11666E-08  6084   0.125E-03
  13 F= -.38885600E+02 E0= -.38881081E+02  d E =-.249756E-04
 curvature:  -1.27 expect dE=-0.315E-04 dE for cont linesearch -0.444E-08
 trial: gam= 0.85487 g(F)=  0.139E-04 g(S)=  0.109E-04 ort =-0.403E-06 (trialstep = 0.111E+01)
 search vector abs. value=  0.582E-04
 bond charge predicted
       N       E                     dE             d eps       ncg     rms          rms(c)
DAV:   1    -0.388855946538E+02    0.50185E-05   -0.14999E-02 10256   0.720E-01    0.346E-02
DAV:   2    -0.388856162562E+02   -0.21602E-04   -0.44045E-04 11920   0.222E-01    0.151E-02
DAV:   3    -0.388856154014E+02    0.85481E-06   -0.30582E-05 12028   0.621E-02    0.863E-03
DAV:   4    -0.388856142134E+02    0.11880E-05   -0.45689E-06 13820   0.281E-02    0.222E-03
DAV:   5    -0.388856143338E+02   -0.12041E-06   -0.15581E-06 10560   0.107E-02    0.105E-03
DAV:   6    -0.388856143176E+02    0.16255E-07   -0.89207E-08 13136   0.307E-03    0.596E-04
DAV:   7    -0.388856143037E+02    0.13900E-07   -0.12504E-08  6060   0.185E-03    0.281E-04
DAV:   8    -0.388856142962E+02    0.74374E-08   -0.78838E-09  5988   0.130E-03
  14 F= -.38885614E+02 E0= -.38881098E+02  d E =-.146213E-04
 trial-energy change:   -0.000015  1 .order   -0.000015   -0.000027   -0.000002
 step:   1.2232(harm=  1.2178)  dis= 0.00087  next Energy=   -38.885614 (dE=-0.147E-04)
 bond charge predicted
       N       E                     dE             d eps       ncg     rms          rms(c)
DAV:   1    -0.388856141779E+02    0.12582E-06   -0.16003E-04 10312   0.744E-02    0.357E-03
DAV:   2    -0.388856143837E+02   -0.20584E-06   -0.47002E-06 11928   0.230E-02    0.155E-03
DAV:   3    -0.388856143964E+02   -0.12713E-07   -0.32680E-07 12088   0.645E-03    0.895E-04
DAV:   4    -0.388856143940E+02    0.24056E-08   -0.46160E-08 10524   0.292E-03
  15 F= -.38885614E+02 E0= -.38881098E+02  d E =-.147191E-04
 curvature:  -1.44 expect dE=-0.118E-04 dE for cont linesearch -0.688E-08
 trial: gam= 0.37162 g(F)=  0.624E-05 g(S)=  0.192E-05 ort =-0.527E-06 (trialstep = 0.113E+01)
 search vector abs. value=  0.158E-04
 bond charge predicted
       N       E                     dE             d eps       ncg     rms          rms(c)
DAV:   1    -0.388856178177E+02   -0.34213E-05   -0.42155E-03 10096   0.381E-01    0.240E-02
DAV:   2    -0.388856217865E+02   -0.39688E-05   -0.14295E-04 12156   0.119E-01    0.125E-02
DAV:   3    -0.388856202028E+02    0.15838E-05   -0.10160E-05 12432   0.412E-02    0.653E-03
DAV:   4    -0.388856194783E+02    0.72451E-06   -0.24266E-06 13036   0.204E-02    0.126E-03
DAV:   5    -0.388856195647E+02   -0.86427E-07   -0.85331E-07 10604   0.823E-03    0.727E-04
DAV:   6    -0.388856195620E+02    0.26448E-08   -0.55938E-08 11256   0.233E-03
  16 F= -.38885620E+02 E0= -.38881107E+02  d E =-.516803E-05
 trial-energy change:   -0.000005  1 .order   -0.000005   -0.000009   -0.000001
 step:   1.2551(harm=  1.2722)  dis= 0.00034  next Energy=   -38.885620 (dE=-0.522E-05)
 bond charge predicted
       N       E                     dE             d eps       ncg     rms          rms(c)
DAV:   1    -0.388856195849E+02   -0.20196E-07   -0.50457E-05 10216   0.417E-02    0.263E-03
DAV:   2    -0.388856196257E+02   -0.40860E-07   -0.17384E-06 12156   0.133E-02    0.138E-03
DAV:   3    -0.388856196215E+02    0.42592E-08   -0.12039E-07 11632   0.498E-03    0.723E-04
DAV:   4    -0.388856196205E+02    0.98498E-09   -0.30865E-08  9428   0.237E-03
  17 F= -.38885620E+02 E0= -.38881108E+02  d E =-.522648E-05
 curvature:  -1.24 expect dE=-0.442E-05 dE for cont linesearch -0.184E-08
 trial: gam= 0.41345 g(F)=  0.317E-05 g(S)=  0.384E-06 ort = 0.153E-06 (trialstep = 0.116E+01)
 search vector abs. value=  0.638E-05
 bond charge predicted
       N       E                     dE             d eps       ncg     rms          rms(c)
DAV:   1    -0.388856230344E+02   -0.34129E-05   -0.16980E-03  9868   0.231E-01    0.168E-02
DAV:   2    -0.388856237571E+02   -0.72276E-06   -0.52018E-05 12328   0.708E-02    0.899E-03
DAV:   3    -0.388856227621E+02    0.99506E-06   -0.43816E-06 11480   0.261E-02    0.464E-03
DAV:   4    -0.388856224183E+02    0.34377E-06   -0.11953E-06 12440   0.146E-02    0.925E-04
DAV:   5    -0.388856224425E+02   -0.24192E-07   -0.37187E-07 10748   0.587E-03    0.543E-04
DAV:   6    -0.388856224368E+02    0.56993E-08   -0.42096E-08 11136   0.188E-03
  18 F= -.38885622E+02 E0= -.38881105E+02  d E =-.281628E-05
 trial-energy change:   -0.000003  1 .order   -0.000003   -0.000004   -0.000002
 step:   2.4155(harm=  1.8904)  dis= 0.00051  next Energy=   -38.885623 (dE=-0.359E-05)
 bond charge predicted
       N       E                     dE             d eps       ncg     rms          rms(c)
DAV:   1    -0.388856232901E+02   -0.84762E-06   -0.20138E-03  9868   0.251E-01    0.184E-02
DAV:   2    -0.388856241651E+02   -0.87498E-06   -0.61753E-05 12336   0.773E-02    0.980E-03
DAV:   3    -0.388856229792E+02    0.11859E-05   -0.51937E-06 11472   0.286E-02    0.505E-03
DAV:   4    -0.388856225720E+02    0.40719E-06   -0.14188E-06 12460   0.159E-02    0.100E-03
DAV:   5    -0.388856226006E+02   -0.28641E-07   -0.43942E-07 10732   0.640E-03    0.589E-04
DAV:   6    -0.388856225942E+02    0.64119E-08   -0.50457E-08 11684   0.208E-03
  19 F= -.38885623E+02 E0= -.38881100E+02  d E =-.297374E-05
 curvature:  -0.81 expect dE=-0.371E-05 dE for cont linesearch -0.126E-06
 ZBRENT: interpolating
 opt :   1.8936  next Energy=   -38.885623 (dE=-0.323E-05)
 bond charge predicted
       N       E                     dE             d eps       ncg     rms          rms(c)
DAV:   1    -0.388856230102E+02   -0.40954E-06   -0.34592E-04  9868   0.104E-01    0.756E-03
DAV:   2    -0.388856232004E+02   -0.19021E-06   -0.10625E-05 12336   0.318E-02    0.405E-03
DAV:   3    -0.388856229475E+02    0.25292E-06   -0.89132E-07 11436   0.114E-02    0.209E-03
DAV:   4    -0.388856228728E+02    0.74638E-07   -0.24275E-07 12412   0.648E-03    0.417E-04
DAV:   5    -0.388856228752E+02   -0.23956E-08   -0.76624E-08 10640   0.261E-03
  20 F= -.38885623E+02 E0= -.38881102E+02  d E =-.325474E-05
 curvature:  -1.68 expect dE=-0.436E-05 dE for cont linesearch -0.241E-08
 trial: gam= 0.74908 g(F)=  0.199E-05 g(S)=  0.614E-06 ort = 0.959E-07 (trialstep = 0.130E+01)
 search vector abs. value=  0.632E-05
 bond charge predicted
       N       E                     dE             d eps       ncg     rms          rms(c)
DAV:   1    -0.388856267546E+02   -0.38817E-05   -0.20006E-03  9900   0.248E-01    0.172E-02
DAV:   2    -0.388856268440E+02   -0.89476E-07   -0.44463E-05 13472   0.580E-02    0.103E-02
DAV:   3    -0.388856248818E+02    0.19623E-05   -0.28947E-06 13688   0.195E-02    0.349E-03
DAV:   4    -0.388856247444E+02    0.13742E-06   -0.11860E-06 10832   0.883E-03    0.950E-04
DAV:   5    -0.388856247531E+02   -0.87794E-08   -0.23653E-07 12500   0.517E-03    0.515E-04
DAV:   6    -0.388856247542E+02   -0.10227E-08   -0.33058E-08  9392   0.253E-03
  21 F= -.38885625E+02 E0= -.38881100E+02  d E =-.187894E-05
 trial-energy change:   -0.000002  1 .order   -0.000002   -0.000003   -0.000001
 step:   1.6506(harm=  1.5367)  dis= 0.00027  next Energy=   -38.885625 (dE=-0.195E-05)
 bond charge predicted
       N       E                     dE             d eps       ncg     rms          rms(c)
DAV:   1    -0.388856249333E+02   -0.18015E-06   -0.14164E-04  9900   0.660E-02    0.460E-03
DAV:   2    -0.388856249355E+02   -0.21728E-08   -0.31432E-06 13512   0.155E-02    0.276E-03
DAV:   3    -0.388856247863E+02    0.14917E-06   -0.20208E-07 13676   0.576E-03    0.940E-04
DAV:   4    -0.388856247746E+02    0.11666E-07   -0.85454E-08 10740   0.268E-03    0.248E-04
DAV:   5    -0.388856247756E+02   -0.97862E-09   -0.14868E-08  5908   0.149E-03
  22 F= -.38885625E+02 E0= -.38881099E+02  d E =-.190038E-05
 curvature:  -1.38 expect dE=-0.199E-05 dE for cont linesearch -0.600E-08
 trial: gam= 0.61889 g(F)=  0.104E-05 g(S)=  0.398E-06 ort =-0.166E-06 (trialstep = 0.137E+01)
 search vector abs. value=  0.365E-05
 bond charge predicted
       N       E                     dE             d eps       ncg     rms          rms(c)
DAV:   1    -0.388856284579E+02   -0.36833E-05   -0.12994E-03 10160   0.207E-01    0.164E-02
DAV:   2    -0.388856270148E+02    0.14431E-05   -0.32491E-05 11800   0.681E-02    0.903E-03
DAV:   3    -0.388856259710E+02    0.10438E-05   -0.33759E-06 12768   0.237E-02    0.412E-03
DAV:   4    -0.388856257003E+02    0.27074E-06   -0.85390E-07 12416   0.121E-02    0.639E-04
DAV:   5    -0.388856257230E+02   -0.22765E-07   -0.27650E-07 10504   0.455E-03    0.425E-04
DAV:   6    -0.388856257133E+02    0.97170E-08   -0.10600E-08  6192   0.129E-03
  23 F= -.38885626E+02 E0= -.38881098E+02  d E =-.937708E-06
 trial-energy change:   -0.000001  1 .order   -0.000001   -0.000002   -0.000000
 step:   1.8353(harm=  1.5908)  dis= 0.00027  next Energy=   -38.885626 (dE=-0.976E-06)
 bond charge predicted
       N       E                     dE             d eps       ncg     rms          rms(c)
DAV:   1    -0.388856259909E+02   -0.26790E-06   -0.14729E-04 10184   0.695E-02    0.553E-03
DAV:   2    -0.388856258064E+02    0.18453E-06   -0.36466E-06 12000   0.228E-02    0.304E-03
DAV:   3    -0.388856257039E+02    0.10251E-06   -0.37635E-07 12532   0.811E-03    0.139E-03
DAV:   4    -0.388856256764E+02    0.27509E-07   -0.97408E-08 11784   0.414E-03    0.215E-04
DAV:   5    -0.388856256784E+02   -0.19954E-08   -0.31023E-08  8416   0.160E-03
  24 F= -.38885626E+02 E0= -.38881097E+02  d E =-.902770E-06
 curvature:   0.57 expect dE= 0.749E-06 dE for cont linesearch  0.491E-08
 trial: gam= 0.91853 g(F)=  0.111E-05 g(S)=  0.212E-06 ort =-0.178E-06 (trialstep = 0.131E+01)
 search vector abs. value=  0.408E-05
 bond charge predicted
       N       E                     dE             d eps       ncg     rms          rms(c)
DAV:   1    -0.388856272463E+02   -0.15699E-05   -0.13862E-03 10084   0.209E-01    0.136E-02
DAV:   2    -0.388856274887E+02   -0.24247E-06   -0.30461E-05 12168   0.575E-02    0.782E-03
DAV:   3    -0.388856264788E+02    0.10100E-05   -0.27839E-06 12748   0.225E-02    0.334E-03
DAV:   4    -0.388856263054E+02    0.17335E-06   -0.72033E-07 11848   0.133E-02    0.736E-04
DAV:   5    -0.388856263271E+02   -0.21724E-07   -0.21543E-07 10700   0.551E-03    0.466E-04
DAV:   6    -0.388856263303E+02   -0.32101E-08   -0.24680E-08  8124   0.221E-03
  25 F= -.38885626E+02 E0= -.38881099E+02  d E =-.651956E-06
 trial-energy change:   -0.000001  1 .order   -0.000001   -0.000002    0.000000
 step:   1.1660(harm=  1.1660)  dis= 0.00017  next Energy=   -38.885626 (dE=-0.673E-06)
 bond charge predicted
       N       E                     dE             d eps       ncg     rms          rms(c)
DAV:   1    -0.388856263479E+02   -0.20804E-07   -0.17570E-05 10084   0.235E-02    0.151E-03
DAV:   2    -0.388856263487E+02   -0.78080E-09   -0.37652E-07 12176   0.611E-03    0.866E-04
DAV:   3    -0.388856263473E+02    0.14165E-08   -0.29455E-08  8628   0.212E-03
  26 F= -.38885626E+02 E0= -.38881099E+02  d E =-.668915E-06
 curvature:  -2.06 expect dE=-0.168E-05 dE for cont linesearch -0.287E-08
 trial: gam= 0.49193 g(F)=  0.378E-06 g(S)=  0.439E-06 ort =-0.754E-07 (trialstep = 0.128E+01)
 search vector abs. value=  0.173E-05
 bond charge predicted
       N       E                     dE             d eps       ncg     rms          rms(c)
DAV:   1    -0.388856271267E+02   -0.77803E-06   -0.56637E-04 10092   0.145E-01    0.101E-02
DAV:   2    -0.388856271484E+02   -0.21650E-07   -0.20968E-05 11976   0.521E-02    0.524E-03
DAV:   3    -0.388856269586E+02    0.18984E-06   -0.17280E-06 13112   0.157E-02    0.261E-03
DAV:   4    -0.388856268721E+02    0.86492E-07   -0.37743E-07 13536   0.789E-03    0.585E-04
DAV:   5    -0.388856268887E+02   -0.16621E-07   -0.12930E-07 10624   0.301E-03    0.257E-04
DAV:   6    -0.388856268865E+02    0.21623E-08   -0.56879E-09  5780   0.862E-04
  27 F= -.38885627E+02 E0= -.38881102E+02  d E =-.539229E-06
 trial-energy change:   -0.000001  1 .order   -0.000001   -0.000001   -0.000000
 step:   1.7297(harm=  1.5394)  dis= 0.00013  next Energy=   -38.885627 (dE=-0.566E-06)
 bond charge predicted
       N       E                     dE             d eps       ncg     rms          rms(c)
DAV:   1    -0.388856269087E+02   -0.19994E-07   -0.68117E-05 10092   0.502E-02    0.353E-03
DAV:   2    -0.388856269043E+02    0.43315E-08   -0.25286E-06 12008   0.181E-02    0.182E-03
DAV:   3    -0.388856269020E+02    0.23956E-08   -0.20827E-07 13128   0.554E-03    0.911E-04
DAV:   4    -0.388856269014E+02    0.58662E-09   -0.42364E-08  9816   0.277E-03
  28 F= -.38885627E+02 E0= -.38881103E+02  d E =-.554072E-06
 curvature:  -0.75 expect dE=-0.640E-06 dE for cont linesearch -0.321E-08
 trial: gam= 1.17028 g(F)=  0.197E-06 g(S)=  0.651E-06 ort =-0.858E-07 (trialstep = 0.788E+00)
 search vector abs. value=  0.301E-05
 bond charge predicted
       N       E                     dE             d eps       ncg     rms          rms(c)
DAV:   1    -0.388856288243E+02   -0.19224E-05   -0.35928E-04 11176   0.135E-01    0.129E-02
DAV:   2    -0.388856277087E+02    0.11156E-05   -0.25234E-05 11800   0.644E-02    0.587E-03
DAV:   3    -0.388856272388E+02    0.46998E-06   -0.18920E-06 13412   0.184E-02    0.284E-03
DAV:   4    -0.388856270060E+02    0.23278E-06   -0.33748E-07 13848   0.811E-03    0.705E-04
DAV:   5    -0.388856269841E+02    0.21849E-07   -0.12371E-07 10960   0.320E-03    0.219E-04
DAV:   6    -0.388856269855E+02   -0.13515E-08   -0.10983E-08  5864   0.132E-03
  29 F= -.38885627E+02 E0= -.38881103E+02  d E =-.841105E-07
 trial-energy change:   -0.000000  1 .order   -0.000000   -0.000001    0.000000
 step:   0.4213(harm=  0.5957)  dis= 0.00005  next Energy=   -38.885627 (dE=-0.140E-06)
 bond charge predicted
       N       E                     dE             d eps       ncg     rms          rms(c)
DAV:   1    -0.388856273090E+02   -0.32487E-06   -0.77698E-05 11168   0.629E-02    0.597E-03
DAV:   2    -0.388856270434E+02    0.26561E-06   -0.54816E-06 11752   0.300E-02    0.273E-03
DAV:   3    -0.388856270176E+02    0.25791E-07   -0.41113E-07 13420   0.856E-03    0.132E-03
DAV:   4    -0.388856270114E+02    0.61982E-08   -0.71664E-08 11792   0.377E-03
  30 F= -.38885627E+02 E0= -.38881103E+02  d E =-.110027E-06
 curvature:  -0.21 expect dE=-0.176E-06 dE for cont linesearch -0.143E-07
 trial: gam= 0.08212 g(F)=  0.223E-06 g(S)=  0.617E-06 ort = 0.453E-06 (trialstep = 0.714E+00)
 search vector abs. value=  0.936E-06
 bond charge predicted
       N       E                     dE             d eps       ncg     rms          rms(c)
DAV:   1    -0.388856308582E+02   -0.38406E-05   -0.90027E-05 12580   0.119E-01    0.141E-02
DAV:   2    -0.388856277249E+02    0.31333E-05   -0.16530E-05 12216   0.631E-02    0.551E-03
DAV:   3    -0.388856272019E+02    0.52296E-06   -0.13533E-06 14752   0.151E-02    0.258E-03
DAV:   4    -0.388856269896E+02    0.21228E-06   -0.21375E-07 15216   0.637E-03    0.654E-04
DAV:   5    -0.388856269560E+02    0.33622E-07   -0.73577E-08 10648   0.253E-03    0.205E-04
DAV:   6    -0.388856269568E+02   -0.82355E-09   -0.41649E-09  5484   0.718E-04
  31 F= -.38885627E+02 E0= -.38881102E+02  d E =0.545633E-07
 trial-energy change:    0.000000  1 .order   -0.000000   -0.000001    0.000000
 step:   0.2650(harm=  0.4504)  dis= 0.00001  next Energy=   -38.885627 (dE=-0.107E-06)
 bond charge predicted
       N       E                     dE             d eps       ncg     rms          rms(c)
DAV:   1    -0.388856283858E+02   -0.14298E-05   -0.35823E-05 12564   0.753E-02    0.887E-03
DAV:   2    -0.388856271622E+02    0.12236E-05   -0.65412E-06 12200   0.396E-02    0.348E-03
DAV:   3    -0.388856270664E+02    0.95821E-07   -0.53485E-07 14704   0.947E-03    0.163E-03
DAV:   4    -0.388856270548E+02    0.11555E-07   -0.83565E-08 13820   0.401E-03    0.413E-04
DAV:   5    -0.388856270703E+02   -0.15536E-07   -0.29735E-08  8196   0.163E-03    0.131E-04
DAV:   6    -0.388856270698E+02    0.51114E-09   -0.25812E-09  5036   0.556E-04
  32 F= -.38885627E+02 E0= -.38881103E+02  d E =-.584369E-07
 curvature:  -0.12 expect dE=-0.237E-07 dE for cont linesearch -0.145E-08
 trial: gam= 0.10961 g(F)=  0.166E-06 g(S)=  0.284E-07 ort = 0.105E-06 (trialstep = 0.625E+00)
 search vector abs. value=  0.229E-06
 reached required accuracy - stopping structural energy minimisation
 writing wavefunctions
Mon Jan  3 23:26:37 CST 2022
