Tue Jan  4 01:29:29 CST 2022
 running on   48 total cores
 distrk:  each k-point on   48 cores,    1 groups
 distr:  one band on   24 cores,    2 groups
 using from now: INCAR     
 vasp.5.3.5 31Mar14 (build Jan 11 2016 19:50:55) complex                        
  
 POSCAR found type information on POSCAR  Zn Ga N  O 
 POSCAR found :  4 types and       8 ions
 scaLAPACK will be used

 ----------------------------------------------------------------------------- 
|                                                                             |
|           W    W    AA    RRRRR   N    N  II  N    N   GGGG   !!!           |
|           W    W   A  A   R    R  NN   N  II  NN   N  G    G  !!!           |
|           W    W  A    A  R    R  N N  N  II  N N  N  G       !!!           |
|           W WW W  AAAAAA  RRRRR   N  N N  II  N  N N  G  GGG   !            |
|           WW  WW  A    A  R   R   N   NN  II  N   NN  G    G                |
|           W    W  A    A  R    R  N    N  II  N    N   GGGG   !!!           |
|                                                                             |
|      For optimal performance we recommend to set                            |
|        NCORE= 4 - approx SQRT( number of cores)                             |
|      NCORE specifies how many cores store one orbital (NPAR=cpu/NCORE).     |
|      This setting can  greatly improve the performance of VASP for DFT.     |
|      The default, NPAR=number of cores might be grossly inefficient         |
|      on modern multi-core architectures or massively parallel machines.     |
|      Do your own testing !!!!                                               |
|      Unfortunately you need to use the default for GW and RPA calculations. |
|      (for HF NCORE is supported but not extensively tested yet)             |
|                                                                             |
 ----------------------------------------------------------------------------- 

 LDA part: xc-table for Pade appr. of Perdew
 POSCAR, INCAR and KPOINTS ok, starting setup
 WARNING: small aliasing (wrap around) errors must be expected
 FFT: planning ...
 WAVECAR not read
 entering main loop
       N       E                     dE             d eps       ncg     rms          rms(c)
DAV:   1     0.894162612826E+03    0.89416E+03   -0.41322E+04 10256   0.340E+03
DAV:   2     0.135679371284E+03   -0.75848E+03   -0.72767E+03  9912   0.783E+02
DAV:   3    -0.341750900391E+02   -0.16985E+03   -0.16552E+03 11060   0.268E+02
DAV:   4    -0.486415833186E+02   -0.14466E+02   -0.14298E+02 12312   0.797E+01
DAV:   5    -0.490858091459E+02   -0.44423E+00   -0.44228E+00 12476   0.140E+01    0.175E+01
DAV:   6    -0.410514300995E+02    0.80344E+01   -0.23956E+01 18544   0.781E+01    0.830E+00
DAV:   7    -0.417009932233E+02   -0.64956E+00   -0.81136E+00 10648   0.205E+01    0.554E+00
DAV:   8    -0.416442251316E+02    0.56768E-01   -0.13131E+00 15660   0.100E+01    0.239E+00
DAV:   9    -0.415904797628E+02    0.53745E-01   -0.22639E-01 14416   0.566E+00    0.982E-01
DAV:  10    -0.415830781508E+02    0.74016E-02   -0.68920E-02 13044   0.193E+00    0.425E-01
DAV:  11    -0.415833126358E+02   -0.23449E-03   -0.11945E-02 13004   0.104E+00    0.138E-01
DAV:  12    -0.415834726929E+02   -0.16006E-03   -0.24179E-03 14908   0.817E-01    0.751E-02
DAV:  13    -0.415835195130E+02   -0.46820E-04   -0.59540E-04 11696   0.237E-01    0.637E-02
DAV:  14    -0.415835054030E+02    0.14110E-04   -0.89554E-05 12936   0.941E-02    0.366E-02
DAV:  15    -0.415835095306E+02   -0.41277E-05   -0.54255E-05 15192   0.900E-02    0.118E-02
DAV:  16    -0.415835100326E+02   -0.50196E-06   -0.13350E-05 11864   0.611E-02    0.676E-03
DAV:  17    -0.415835102986E+02   -0.26597E-06   -0.30438E-06 14936   0.162E-02    0.340E-03
DAV:  18    -0.415835104075E+02   -0.10890E-06   -0.10575E-06 11688   0.843E-03    0.146E-03
DAV:  19    -0.415835103536E+02    0.53848E-07   -0.15005E-07 12380   0.649E-03    0.103E-03
DAV:  20    -0.415835102961E+02    0.57549E-07   -0.47689E-08 11128   0.336E-03    0.505E-04
DAV:  21    -0.415835102734E+02    0.22623E-07   -0.90421E-09  7008   0.135E-03    0.179E-04
DAV:  22    -0.415835102684E+02    0.50600E-08   -0.36999E-09  5844   0.752E-04
   1 F= -.41583510E+02 E0= -.41582069E+02  d E =-.415835E+02
 curvature:   0.00 expect dE= 0.000E+00 dE for cont linesearch  0.000E+00
 trial: gam= 0.00000 g(F)=  0.256E-03 g(S)=  0.106E-03 ort = 0.000E+00 (trialstep = 0.100E+01)
 search vector abs. value=  0.362E-03
 bond charge predicted
       N       E                     dE             d eps       ncg     rms          rms(c)
DAV:   1    -0.415844751318E+02   -0.96486E-03   -0.70127E-02 12900   0.265E+00    0.261E-01
DAV:   2    -0.415837499629E+02    0.72517E-03   -0.83909E-03 12536   0.141E+00    0.105E-01
DAV:   3    -0.415836441952E+02    0.10577E-03   -0.65034E-04 13036   0.308E-01    0.505E-02
DAV:   4    -0.415835946632E+02    0.49532E-04   -0.10074E-04 13836   0.157E-01    0.135E-02
DAV:   5    -0.415835939494E+02    0.71379E-06   -0.34194E-05 11384   0.510E-02    0.481E-03
DAV:   6    -0.415835941232E+02   -0.17379E-06   -0.47606E-06 10924   0.245E-02    0.346E-03
DAV:   7    -0.415835940351E+02    0.88054E-07   -0.36277E-07 12312   0.124E-02    0.239E-03
DAV:   8    -0.415835938958E+02    0.13935E-06   -0.16952E-07 13916   0.896E-03    0.626E-04
DAV:   9    -0.415835938552E+02    0.40578E-07   -0.78663E-08 11200   0.523E-03    0.232E-04
DAV:  10    -0.415835938499E+02    0.52760E-08   -0.14147E-08  6232   0.156E-03
   2 F= -.41583594E+02 E0= -.41582163E+02  d E =-.835815E-04
 trial-energy change:   -0.000084  1 .order   -0.000083   -0.000362    0.000197
 step:   0.6503(harm=  0.6476)  dis= 0.00117  next Energy=   -41.583628 (dE=-0.118E-03)
 bond charge predicted
       N       E                     dE             d eps       ncg     rms          rms(c)
DAV:   1    -0.415837390331E+02   -0.14518E-03   -0.86211E-03 12992   0.931E-01    0.911E-02
DAV:   2    -0.415836497636E+02    0.89269E-04   -0.10124E-03 12512   0.490E-01    0.367E-02
DAV:   3    -0.415836354755E+02    0.14288E-04   -0.78415E-05 13084   0.106E-01    0.177E-02
DAV:   4    -0.415836283421E+02    0.71334E-05   -0.12115E-05 13852   0.549E-02    0.471E-03
DAV:   5    -0.415836280200E+02    0.32207E-06   -0.42141E-06 11356   0.182E-02    0.165E-03
DAV:   6    -0.415836280579E+02   -0.37856E-07   -0.60306E-07 10896   0.892E-03    0.122E-03
DAV:   7    -0.415836280753E+02   -0.17460E-07   -0.44417E-08  9324   0.448E-03    0.849E-04
DAV:   8    -0.415836281210E+02   -0.45649E-07   -0.17338E-08  6736   0.305E-03    0.232E-04
DAV:   9    -0.415836281384E+02   -0.17443E-07   -0.13549E-08  5820   0.216E-03    0.126E-04
DAV:  10    -0.415836281420E+02   -0.35643E-08   -0.36973E-09  5476   0.925E-04
   3 F= -.41583628E+02 E0= -.41582194E+02  d E =-.117874E-03
 curvature:  -0.32 expect dE=-0.191E-04 dE for cont linesearch -0.171E-08
 trial: gam= 0.16675 g(F)=  0.391E-04 g(S)=  0.199E-04 ort =-0.138E-05 (trialstep = 0.930E+00)
 search vector abs. value=  0.686E-04
 bond charge predicted
       N       E                     dE             d eps       ncg     rms          rms(c)
DAV:   1    -0.415836809973E+02   -0.52859E-04   -0.12016E-02 10144   0.592E-01    0.434E-02
DAV:   2    -0.415836737771E+02    0.72202E-05   -0.25109E-04 12096   0.178E-01    0.256E-02
DAV:   3    -0.415836622491E+02    0.11528E-04   -0.27607E-05 11912   0.867E-02    0.101E-02
DAV:   4    -0.415836611738E+02    0.10754E-05   -0.10761E-05 13120   0.542E-02    0.253E-03
DAV:   5    -0.415836613648E+02   -0.19097E-06   -0.25500E-06 10800   0.196E-02    0.170E-03
DAV:   6    -0.415836613826E+02   -0.17888E-07   -0.35469E-07 11680   0.972E-03    0.104E-03
DAV:   7    -0.415836614037E+02   -0.21014E-07   -0.88163E-08 12880   0.628E-03    0.437E-04
DAV:   8    -0.415836614171E+02   -0.13394E-07   -0.20701E-08  7608   0.202E-03    0.175E-04
DAV:   9    -0.415836614229E+02   -0.58749E-08   -0.60861E-09  5736   0.751E-04
   4 F= -.41583661E+02 E0= -.41582228E+02  d E =-.332809E-04
 trial-energy change:   -0.000033  1 .order   -0.000033   -0.000055   -0.000011
 step:   1.1519(harm=  1.1675)  dis= 0.00140  next Energy=   -41.583663 (dE=-0.346E-04)
 bond charge predicted
       N       E                     dE             d eps       ncg     rms          rms(c)
DAV:   1    -0.415836652763E+02   -0.38592E-05   -0.68382E-04 10144   0.141E-01    0.103E-02
DAV:   2    -0.415836649180E+02    0.35823E-06   -0.14214E-05 12104   0.420E-02    0.610E-03
DAV:   3    -0.415836642359E+02    0.68209E-06   -0.15525E-06 11968   0.204E-02    0.238E-03
DAV:   4    -0.415836641881E+02    0.47824E-07   -0.60617E-07 13124   0.128E-02    0.599E-04
DAV:   5    -0.415836642047E+02   -0.16544E-07   -0.14322E-07 10744   0.466E-03    0.404E-04
DAV:   6    -0.415836642094E+02   -0.47203E-08   -0.17268E-08  6528   0.232E-03
   5 F= -.41583664E+02 E0= -.41582232E+02  d E =-.360674E-04
 curvature:  -0.68 expect dE=-0.111E-04 dE for cont linesearch -0.335E-08
 trial: gam= 0.26066 g(F)=  0.116E-04 g(S)=  0.477E-05 ort = 0.582E-06 (trialstep = 0.974E+00)
 search vector abs. value=  0.213E-04
 bond charge predicted
       N       E                     dE             d eps       ncg     rms          rms(c)
DAV:   1    -0.415837085714E+02   -0.44367E-04   -0.42225E-03 11584   0.525E-01    0.497E-02
DAV:   2    -0.415836836669E+02    0.24904E-04   -0.32774E-04 12080   0.265E-01    0.213E-02
DAV:   3    -0.415836784132E+02    0.52537E-05   -0.23798E-05 14456   0.672E-02    0.103E-02
DAV:   4    -0.415836759727E+02    0.24405E-05   -0.43567E-06 15580   0.325E-02    0.276E-03
DAV:   5    -0.415836758828E+02    0.89965E-07   -0.17177E-06 10800   0.147E-02    0.130E-03
DAV:   6    -0.415836758985E+02   -0.15711E-07   -0.23620E-07 11804   0.665E-03    0.101E-03
DAV:   7    -0.415836759112E+02   -0.12730E-07   -0.26270E-08  8000   0.402E-03    0.659E-04
DAV:   8    -0.415836759464E+02   -0.35218E-07   -0.11071E-08  6120   0.148E-03    0.174E-04
DAV:   9    -0.415836759493E+02   -0.29286E-08   -0.78543E-09  5628   0.161E-03
   6 F= -.41583676E+02 E0= -.41582244E+02  d E =-.117400E-04
 trial-energy change:   -0.000012  1 .order   -0.000011   -0.000016   -0.000005
 step:   1.2569(harm=  1.4645)  dis= 0.00070  next Energy=   -41.583677 (dE=-0.125E-04)
 bond charge predicted
       N       E                     dE             d eps       ncg     rms          rms(c)
DAV:   1    -0.415836798693E+02   -0.39228E-05   -0.35494E-04 11572   0.152E-01    0.144E-02
DAV:   2    -0.415836777887E+02    0.20805E-05   -0.27503E-05 12088   0.767E-02    0.615E-03
DAV:   3    -0.415836772539E+02    0.53481E-06   -0.19969E-06 14468   0.194E-02    0.299E-03
DAV:   4    -0.415836769851E+02    0.26882E-06   -0.36556E-07 15624   0.936E-03    0.796E-04
DAV:   5    -0.415836769624E+02    0.22688E-07   -0.14479E-07 10756   0.425E-03    0.379E-04
DAV:   6    -0.415836769642E+02   -0.18053E-08   -0.16762E-08  6676   0.193E-03
   7 F= -.41583677E+02 E0= -.41582245E+02  d E =-.127549E-04
 curvature:  -0.78 expect dE=-0.701E-05 dE for cont linesearch -0.139E-06
 ZBRENT: increasing intervall
 opt :   1.8218  next Energy=   -41.583676 (dE=-0.118E-04)
 bond charge predicted
       N       E                     dE             d eps       ncg     rms          rms(c)
DAV:   1    -0.415836874775E+02   -0.10515E-04   -0.14198E-03 11572   0.304E-01    0.288E-02
DAV:   2    -0.415836791274E+02    0.83501E-05   -0.11019E-04 12080   0.153E-01    0.123E-02
DAV:   3    -0.415836772464E+02    0.18810E-05   -0.79930E-06 14440   0.389E-02    0.598E-03
DAV:   4    -0.415836763495E+02    0.89693E-06   -0.14665E-06 15584   0.189E-02    0.160E-03
DAV:   5    -0.415836763026E+02    0.46907E-07   -0.57791E-07 10808   0.850E-03    0.757E-04
DAV:   6    -0.415836763089E+02   -0.63555E-08   -0.79174E-08 11316   0.386E-03
   8 F= -.41583676E+02 E0= -.41582245E+02  d E =-.120996E-04
 curvature:   5.06 expect dE= 0.102E-03 dE for cont linesearch  0.502E-05
 ZBRENT: bracketing found
 ZBRENT: interpolating
 opt :   1.4255  next Energy=   -41.583677 (dE=-0.129E-04)
 bond charge predicted
       N       E                     dE             d eps       ncg     rms          rms(c)
DAV:   1    -0.415836820925E+02   -0.57900E-05   -0.69809E-04 11596   0.213E-01    0.201E-02
DAV:   2    -0.415836779655E+02    0.41270E-05   -0.54327E-05 12080   0.107E-01    0.864E-03
DAV:   3    -0.415836773718E+02    0.59367E-06   -0.39085E-06 14444   0.271E-02    0.420E-03
DAV:   4    -0.415836771571E+02    0.21467E-06   -0.72387E-07 15548   0.129E-02    0.111E-03
DAV:   5    -0.415836771880E+02   -0.30809E-07   -0.28428E-07 10792   0.580E-03    0.525E-04
DAV:   6    -0.415836771874E+02    0.56662E-09   -0.36755E-08 10508   0.270E-03
   9 F= -.41583677E+02 E0= -.41582245E+02  d E =-.129780E-04
 curvature:  -0.17 expect dE=-0.174E-05 dE for cont linesearch -0.284E-08
 trial: gam= 0.62070 g(F)=  0.575E-05 g(S)=  0.472E-05 ort = 0.603E-06 (trialstep = 0.106E+01)
 search vector abs. value=  0.194E-04
 bond charge predicted
       N       E                     dE             d eps       ncg     rms          rms(c)
DAV:   1    -0.415836909272E+02   -0.13739E-04   -0.44437E-03 10788   0.423E-01    0.303E-02
DAV:   2    -0.415836879078E+02    0.30194E-05   -0.16774E-04 11652   0.172E-01    0.141E-02
DAV:   3    -0.415836861774E+02    0.17304E-05   -0.13849E-05 13372   0.485E-02    0.704E-03
DAV:   4    -0.415836854266E+02    0.75086E-06   -0.26516E-06 13308   0.264E-02    0.170E-03
DAV:   5    -0.415836854982E+02   -0.71681E-07   -0.90882E-07 10916   0.109E-02    0.711E-04
DAV:   6    -0.415836854968E+02    0.14620E-08   -0.13215E-07 11560   0.550E-03    0.572E-04
DAV:   7    -0.415836854855E+02    0.11238E-07   -0.12930E-08  6132   0.322E-03    0.295E-04
DAV:   8    -0.415836854712E+02    0.14319E-07   -0.78148E-09  5980   0.110E-03    0.955E-05
DAV:   9    -0.415836854710E+02    0.22328E-09   -0.44671E-09  5596   0.948E-04
  10 F= -.41583685E+02 E0= -.41582254E+02  d E =-.828361E-05
 trial-energy change:   -0.000008  1 .order   -0.000008   -0.000012   -0.000005
 step:   1.7375(harm=  1.8313)  dis= 0.00074  next Energy=   -41.583687 (dE=-0.983E-05)
 bond charge predicted
       N       E                     dE             d eps       ncg     rms          rms(c)
DAV:   1    -0.415836893071E+02   -0.38358E-05   -0.17755E-03 10804   0.268E-01    0.191E-02
DAV:   2    -0.415836880851E+02    0.12220E-05   -0.66999E-05 11640   0.109E-01    0.893E-03
DAV:   3    -0.415836874662E+02    0.61885E-06   -0.55200E-06 13344   0.308E-02    0.446E-03
DAV:   4    -0.415836872140E+02    0.25221E-06   -0.10622E-06 13324   0.168E-02    0.108E-03
DAV:   5    -0.415836872515E+02   -0.37540E-07   -0.36176E-07 10908   0.694E-03    0.448E-04
DAV:   6    -0.415836872494E+02    0.21132E-08   -0.53172E-08 10340   0.350E-03
  11 F= -.41583687E+02 E0= -.41582256E+02  d E =-.100620E-04
 curvature:  -1.62 expect dE=-0.508E-05 dE for cont linesearch -0.143E-07
 trial: gam= 0.29408 g(F)=  0.258E-05 g(S)=  0.566E-06 ort = 0.414E-06 (trialstep = 0.120E+01)
 search vector abs. value=  0.507E-05
 bond charge predicted
       N       E                     dE             d eps       ncg     rms          rms(c)
DAV:   1    -0.415836877212E+02   -0.46968E-06   -0.14449E-03 10204   0.217E-01    0.842E-03
DAV:   2    -0.415836904904E+02   -0.27692E-05   -0.36755E-05 11424   0.502E-02    0.503E-03
DAV:   3    -0.415836902461E+02    0.24431E-06   -0.21943E-06 12976   0.200E-02    0.278E-03
DAV:   4    -0.415836901009E+02    0.14517E-06   -0.43045E-07 13244   0.164E-02    0.711E-04
DAV:   5    -0.415836901040E+02   -0.30955E-08   -0.18898E-07 11460   0.545E-03    0.363E-04
DAV:   6    -0.415836901048E+02   -0.79626E-09   -0.27269E-08  7716   0.138E-03
  12 F= -.41583690E+02 E0= -.41582258E+02  d E =-.285540E-05
 trial-energy change:   -0.000003  1 .order   -0.000003   -0.000004   -0.000002
 step:   2.3793(harm=  2.3793)  dis= 0.00040  next Energy=   -41.583691 (dE=-0.389E-05)
 bond charge predicted
       N       E                     dE             d eps       ncg     rms          rms(c)
DAV:   1    -0.415836887116E+02    0.13924E-05   -0.13996E-03 10200   0.214E-01    0.832E-03
DAV:   2    -0.415836913955E+02   -0.26839E-05   -0.35586E-05 11424   0.489E-02    0.493E-03
DAV:   3    -0.415836911554E+02    0.24012E-06   -0.20713E-06 13020   0.190E-02    0.271E-03
DAV:   4    -0.415836910197E+02    0.13564E-06   -0.42167E-07 13816   0.152E-02    0.691E-04
DAV:   5    -0.415836910236E+02   -0.38708E-08   -0.18082E-07 11528   0.544E-03    0.357E-04
DAV:   6    -0.415836910243E+02   -0.68258E-09   -0.22293E-08  7432   0.143E-03
  13 F= -.41583691E+02 E0= -.41582259E+02  d E =-.377487E-05
 curvature:  -1.85 expect dE=-0.563E-05 dE for cont linesearch -0.218E-09
 trial: gam= 1.01460 g(F)=  0.301E-05 g(S)=  0.405E-07 ort = 0.245E-07 (trialstep = 0.875E+00)
 search vector abs. value=  0.832E-05
 bond charge predicted
       N       E                     dE             d eps       ncg     rms          rms(c)
DAV:   1    -0.415836895831E+02    0.14405E-05   -0.13875E-03  9872   0.215E-01    0.792E-03
DAV:   2    -0.415836931158E+02   -0.35326E-05   -0.42105E-05 11596   0.492E-02    0.430E-03
DAV:   3    -0.415836930247E+02    0.91103E-07   -0.20220E-06 12720   0.180E-02    0.253E-03
DAV:   4    -0.415836929050E+02    0.11966E-06   -0.36355E-07 13016   0.122E-02    0.939E-04
DAV:   5    -0.415836928881E+02    0.16890E-07   -0.15890E-07 11464   0.504E-03    0.393E-04
DAV:   6    -0.415836928844E+02    0.36948E-08   -0.27832E-08  7972   0.207E-03
  14 F= -.41583693E+02 E0= -.41582261E+02  d E =-.186013E-05
 trial-energy change:   -0.000002  1 .order   -0.000002   -0.000003   -0.000001
 step:   1.4162(harm=  1.4162)  dis= 0.00038  next Energy=   -41.583693 (dE=-0.218E-05)
 bond charge predicted
       N       E                     dE             d eps       ncg     rms          rms(c)
DAV:   1    -0.415836953163E+02   -0.24282E-05   -0.53186E-04  9872   0.133E-01    0.496E-03
DAV:   2    -0.415836966820E+02   -0.13657E-05   -0.16202E-05 11620   0.307E-02    0.266E-03
DAV:   3    -0.415836966374E+02    0.44584E-07   -0.78505E-07 12704   0.116E-02    0.155E-03
DAV:   4    -0.415836965872E+02    0.50269E-07   -0.13836E-07 12748   0.771E-03    0.583E-04
DAV:   5    -0.415836965755E+02    0.11673E-07   -0.59448E-08 10316   0.327E-03    0.233E-04
DAV:   6    -0.415836965738E+02    0.17008E-08   -0.11061E-08  5916   0.134E-03
  15 F= -.41583697E+02 E0= -.41582265E+02  d E =-.554949E-05
 curvature:  -1.92 expect dE=-0.251E-05 dE for cont linesearch -0.170E-08
 trial: gam= 0.38462 g(F)=  0.101E-05 g(S)=  0.294E-06 ort = 0.858E-07 (trialstep = 0.983E+00)
 search vector abs. value=  0.260E-05
 bond charge predicted
       N       E                     dE             d eps       ncg     rms          rms(c)
DAV:   1    -0.415836968055E+02   -0.23002E-06   -0.52920E-04  9884   0.142E-01    0.938E-03
DAV:   2    -0.415836975073E+02   -0.70181E-06   -0.24668E-05 11624   0.536E-02    0.459E-03
DAV:   3    -0.415836974792E+02    0.28110E-07   -0.18561E-06 12800   0.144E-02    0.237E-03
DAV:   4    -0.415836974213E+02    0.57943E-07   -0.29715E-07 12896   0.869E-03    0.673E-04
DAV:   5    -0.415836974405E+02   -0.19196E-07   -0.11517E-07 10736   0.288E-03    0.253E-04
DAV:   6    -0.415836974371E+02    0.33069E-08   -0.98217E-09  6436   0.112E-03
  16 F= -.41583697E+02 E0= -.41582265E+02  d E =-.863360E-06
 trial-energy change:   -0.000001  1 .order   -0.000001   -0.000001   -0.000000
 step:   1.0933(harm=  1.1612)  dis= 0.00018  next Energy=   -41.583697 (dE=-0.875E-06)
 bond charge predicted
       N       E                     dE             d eps       ncg     rms          rms(c)
DAV:   1    -0.415836974409E+02   -0.43929E-09   -0.66977E-06  9888   0.159E-02    0.107E-03
DAV:   2    -0.415836974460E+02   -0.50841E-08   -0.30780E-07 11672   0.605E-03    0.529E-04
DAV:   3    -0.415836974536E+02   -0.76316E-08   -0.20339E-08  7664   0.164E-03
  17 F= -.41583697E+02 E0= -.41582265E+02  d E =-.879822E-06
 curvature:  -0.96 expect dE=-0.584E-06 dE for cont linesearch -0.427E-08
 trial: gam= 0.41937 g(F)=  0.322E-06 g(S)=  0.283E-06 ort = 0.107E-06 (trialstep = 0.101E+01)
 search vector abs. value=  0.115E-05
 bond charge predicted
       N       E                     dE             d eps       ncg     rms          rms(c)
DAV:   1    -0.415836949092E+02    0.25368E-05   -0.20397E-04  9872   0.910E-02    0.797E-03
DAV:   2    -0.415836948394E+02    0.69709E-07   -0.99985E-06 11784   0.381E-02    0.405E-03
DAV:   3    -0.415836945787E+02    0.26073E-06   -0.91072E-07 12788   0.112E-02    0.203E-03
DAV:   4    -0.415836944854E+02    0.93287E-07   -0.19292E-07 13812   0.649E-03    0.301E-04
DAV:   5    -0.415836944901E+02   -0.46612E-08   -0.59467E-08 10552   0.207E-03
  18 F= -.41583694E+02 E0= -.41582262E+02  d E =0.296352E-05
 trial-energy change:    0.000003  1 .order   -0.000000   -0.000001   -0.000000
 step:   1.0228(harm=  1.0228)  dis= 0.00009  next Energy=   -41.583698 (dE=-0.333E-06)
 bond charge predicted
       N       E                     dE             d eps       ncg     rms          rms(c)
DAV:   1    -0.415836944945E+02   -0.91068E-08   -0.66313E-08  9676   0.181E-03    0.203E-04
DAV:   2    -0.415836944973E+02   -0.27885E-08   -0.42351E-09  5424   0.987E-04
  19 F= -.41583694E+02 E0= -.41582262E+02  d E =0.295628E-05
 curvature:  -0.91 expect dE=-0.152E-06 dE for cont linesearch -0.230E-12
 trial: gam= 0.35421 g(F)=  0.114E-06 g(S)=  0.532E-07 ort =-0.541E-09 (trialstep = 0.101E+01)
 search vector abs. value=  0.312E-06
 bond charge predicted
       N       E                     dE             d eps       ncg     rms          rms(c)
DAV:   1    -0.415836946136E+02   -0.11907E-06   -0.58125E-05  9860   0.454E-02    0.368E-03
DAV:   2    -0.415836946046E+02    0.89931E-08   -0.23281E-06 11912   0.176E-02    0.211E-03
DAV:   3    -0.415836946028E+02    0.17744E-08   -0.19361E-07 12264   0.497E-03    0.101E-03
DAV:   4    -0.415836946055E+02   -0.26675E-08   -0.40961E-08 11220   0.275E-03
  20 F= -.41583695E+02 E0= -.41582262E+02  d E =-.108185E-06
 trial-energy change:   -0.000000  1 .order   -0.000000   -0.000000    0.000000
 step:   0.9984(harm=  0.9984)  dis= 0.00005  next Energy=   -41.583695 (dE=-0.833E-07)
 bond charge predicted
       N       E                     dE             d eps       ncg     rms          rms(c)
DAV:   1    -0.415836946080E+02   -0.51559E-08   -0.18611E-08  5892   0.108E-03    0.955E-05
DAV:   2    -0.415836946062E+02    0.17599E-08   -0.24803E-09  5268   0.627E-04
  21 F= -.41583695E+02 E0= -.41582262E+02  d E =-.108914E-06
 curvature:  -0.93 expect dE=-0.379E-07 dE for cont linesearch -0.982E-09
 trial: gam= 0.15340 g(F)=  0.360E-07 g(S)=  0.475E-08 ort = 0.181E-07 (trialstep = 0.101E+01)
 search vector abs. value=  0.537E-07
 reached required accuracy - stopping structural energy minimisation
 writing wavefunctions
Tue Jan  4 01:34:16 CST 2022
