Mon Jan  3 23:44:25 CST 2022
 running on   48 total cores
 distrk:  each k-point on   48 cores,    1 groups
 distr:  one band on   24 cores,    2 groups
 using from now: INCAR     
 vasp.5.3.5 31Mar14 (build Jan 11 2016 19:50:55) complex                        
  
 POSCAR found type information on POSCAR  Zn Ga N  O 
 POSCAR found :  4 types and       8 ions
 scaLAPACK will be used

 ----------------------------------------------------------------------------- 
|                                                                             |
|           W    W    AA    RRRRR   N    N  II  N    N   GGGG   !!!           |
|           W    W   A  A   R    R  NN   N  II  NN   N  G    G  !!!           |
|           W    W  A    A  R    R  N N  N  II  N N  N  G       !!!           |
|           W WW W  AAAAAA  RRRRR   N  N N  II  N  N N  G  GGG   !            |
|           WW  WW  A    A  R   R   N   NN  II  N   NN  G    G                |
|           W    W  A    A  R    R  N    N  II  N    N   GGGG   !!!           |
|                                                                             |
|      For optimal performance we recommend to set                            |
|        NCORE= 4 - approx SQRT( number of cores)                             |
|      NCORE specifies how many cores store one orbital (NPAR=cpu/NCORE).     |
|      This setting can  greatly improve the performance of VASP for DFT.     |
|      The default, NPAR=number of cores might be grossly inefficient         |
|      on modern multi-core architectures or massively parallel machines.     |
|      Do your own testing !!!!                                               |
|      Unfortunately you need to use the default for GW and RPA calculations. |
|      (for HF NCORE is supported but not extensively tested yet)             |
|                                                                             |
 ----------------------------------------------------------------------------- 

 LDA part: xc-table for Pade appr. of Perdew
 POSCAR, INCAR and KPOINTS ok, starting setup
 WARNING: small aliasing (wrap around) errors must be expected
 FFT: planning ...
 WAVECAR not read
 entering main loop
       N       E                     dE             d eps       ncg     rms          rms(c)
DAV:   1     0.889319951456E+03    0.88932E+03   -0.42287E+04 10220   0.329E+03
DAV:   2     0.143109298065E+03   -0.74621E+03   -0.71874E+03  9880   0.777E+02
DAV:   3    -0.250386040010E+02   -0.16815E+03   -0.16306E+03 11432   0.262E+02
DAV:   4    -0.394360051589E+02   -0.14397E+02   -0.14213E+02 11696   0.768E+01
DAV:   5    -0.399623182315E+02   -0.52631E+00   -0.52388E+00 13448   0.140E+01    0.142E+01
DAV:   6    -0.348595381369E+02    0.51028E+01   -0.20271E+01 18632   0.738E+01    0.683E+00
DAV:   7    -0.351927823607E+02   -0.33324E+00   -0.59655E+00 10612   0.196E+01    0.438E+00
DAV:   8    -0.351559496207E+02    0.36833E-01   -0.11421E+00 15552   0.779E+00    0.206E+00
DAV:   9    -0.351287431857E+02    0.27206E-01   -0.18364E-01 12588   0.442E+00    0.694E-01
DAV:  10    -0.351276704693E+02    0.10727E-02   -0.48547E-02 13364   0.172E+00    0.382E-01
DAV:  11    -0.351279733202E+02   -0.30285E-03   -0.51859E-03 11660   0.103E+00    0.199E-01
DAV:  12    -0.351282959328E+02   -0.32261E-03   -0.15196E-03 11392   0.394E-01    0.461E-02
DAV:  13    -0.351282788865E+02    0.17046E-04   -0.29175E-04 12648   0.235E-01    0.182E-02
DAV:  14    -0.351282892103E+02   -0.10324E-04   -0.92723E-05 12608   0.962E-02    0.139E-02
DAV:  15    -0.351282931351E+02   -0.39248E-05   -0.16959E-05 12296   0.552E-02    0.682E-03
DAV:  16    -0.351282962832E+02   -0.31481E-05   -0.65322E-06 11232   0.295E-02    0.253E-03
DAV:  17    -0.351282968592E+02   -0.57599E-06   -0.16671E-06 12680   0.121E-02    0.195E-03
DAV:  18    -0.351282968626E+02   -0.34233E-08   -0.26189E-07 13324   0.984E-03    0.690E-04
DAV:  19    -0.351282968293E+02    0.33313E-07   -0.79417E-08 10896   0.295E-03    0.357E-04
DAV:  20    -0.351282968308E+02   -0.14561E-08   -0.11862E-08  8176   0.911E-04
   1 F= -.35128297E+02 E0= -.35116778E+02  d E =-.351283E+02
 curvature:   0.00 expect dE= 0.000E+00 dE for cont linesearch  0.000E+00
 trial: gam= 0.00000 g(F)=  0.166E-03 g(S)=  0.764E-04 ort = 0.000E+00 (trialstep = 0.100E+01)
 search vector abs. value=  0.242E-03
 bond charge predicted
       N       E                     dE             d eps       ncg     rms          rms(c)
DAV:   1    -0.351285365526E+02   -0.23972E-03   -0.41410E-02  9964   0.123E+00    0.113E-01
DAV:   2    -0.351285354018E+02    0.11508E-05   -0.24417E-03 12936   0.580E-01    0.660E-02
DAV:   3    -0.351284728888E+02    0.62513E-04   -0.24430E-04 12492   0.225E-01    0.316E-02
DAV:   4    -0.351284564295E+02    0.16459E-04   -0.90323E-05 11312   0.106E-01    0.799E-03
DAV:   5    -0.351284571386E+02   -0.70904E-06   -0.23153E-05 11924   0.652E-02    0.420E-03
DAV:   6    -0.351284573648E+02   -0.22622E-06   -0.55720E-06 11472   0.329E-02    0.286E-03
DAV:   7    -0.351284573436E+02    0.21143E-07   -0.12012E-06 14552   0.161E-02    0.145E-03
DAV:   8    -0.351284573101E+02    0.33494E-07   -0.26938E-07 11552   0.101E-02    0.612E-04
DAV:   9    -0.351284573073E+02    0.28467E-08   -0.88766E-08 12476   0.321E-03
   2 F= -.35128457E+02 E0= -.35116933E+02  d E =-.160477E-03
 trial-energy change:   -0.000160  1 .order   -0.000161   -0.000242   -0.000079
 step:   1.4826(harm=  1.4826)  dis= 0.00157  next Energy=   -35.128477 (dE=-0.180E-03)
 bond charge predicted
       N       E                     dE             d eps       ncg     rms          rms(c)
DAV:   1    -0.351284941986E+02   -0.36888E-04   -0.96508E-03  9916   0.593E-01    0.547E-02
DAV:   2    -0.351284938886E+02    0.31000E-06   -0.56832E-04 12932   0.280E-01    0.319E-02
DAV:   3    -0.351284794326E+02    0.14456E-04   -0.57022E-05 12516   0.108E-01    0.152E-02
DAV:   4    -0.351284756264E+02    0.38062E-05   -0.20860E-05 11300   0.511E-02    0.383E-03
DAV:   5    -0.351284757820E+02   -0.15564E-06   -0.53937E-06 11944   0.312E-02    0.203E-03
DAV:   6    -0.351284758313E+02   -0.49229E-07   -0.12811E-06 11452   0.158E-02    0.138E-03
DAV:   7    -0.351284758169E+02    0.14337E-07   -0.28112E-07 14504   0.776E-03    0.701E-04
DAV:   8    -0.351284758000E+02    0.16877E-07   -0.60989E-08 10708   0.485E-03    0.292E-04
DAV:   9    -0.351284757973E+02    0.27667E-08   -0.17020E-08  6720   0.153E-03
   3 F= -.35128476E+02 E0= -.35116948E+02  d E =-.178967E-03
 curvature:  -0.74 expect dE=-0.931E-04 dE for cont linesearch -0.644E-08
 trial: gam= 0.52407 g(F)=  0.908E-04 g(S)=  0.348E-04 ort =-0.145E-05 (trialstep = 0.110E+01)
 search vector abs. value=  0.191E-03
 bond charge predicted
       N       E                     dE             d eps       ncg     rms          rms(c)
DAV:   1    -0.351287308645E+02   -0.25506E-03   -0.38291E-02 10112   0.124E+00    0.120E-01
DAV:   2    -0.351286321982E+02    0.98666E-04   -0.20134E-03 11772   0.522E-01    0.602E-02
DAV:   3    -0.351285888565E+02    0.43342E-04   -0.22292E-04 13612   0.204E-01    0.306E-02
DAV:   4    -0.351285725742E+02    0.16282E-04   -0.52354E-05 12740   0.107E-01    0.852E-03
DAV:   5    -0.351285724755E+02    0.98606E-07   -0.18142E-05 10956   0.511E-02    0.354E-03
DAV:   6    -0.351285726557E+02   -0.18019E-06   -0.39126E-06 11964   0.263E-02    0.235E-03
DAV:   7    -0.351285726967E+02   -0.40965E-07   -0.65565E-07 12772   0.149E-02    0.142E-03
DAV:   8    -0.351285727345E+02   -0.37832E-07   -0.20840E-07 12540   0.710E-03    0.520E-04
DAV:   9    -0.351285727479E+02   -0.13371E-07   -0.63032E-08  8748   0.452E-03    0.242E-04
DAV:  10    -0.351285727538E+02   -0.58703E-08   -0.18966E-08  7232   0.190E-03
   4 F= -.35128573E+02 E0= -.35117015E+02  d E =-.969565E-04
 trial-energy change:   -0.000097  1 .order   -0.000096   -0.000137   -0.000055
 step:   1.7657(harm=  1.8373)  dis= 0.00131  next Energy=   -35.128590 (dE=-0.114E-03)
 bond charge predicted
       N       E                     dE             d eps       ncg     rms          rms(c)
DAV:   1    -0.351286500600E+02   -0.77312E-04   -0.14260E-02 10096   0.759E-01    0.735E-02
DAV:   2    -0.351286134474E+02    0.36613E-04   -0.74865E-04 11764   0.319E-01    0.367E-02
DAV:   3    -0.351285971597E+02    0.16288E-04   -0.83189E-05 13592   0.125E-01    0.187E-02
DAV:   4    -0.351285910172E+02    0.61424E-05   -0.19659E-05 12732   0.657E-02    0.522E-03
DAV:   5    -0.351285909648E+02    0.52466E-07   -0.68140E-06 10964   0.315E-02    0.216E-03
DAV:   6    -0.351285910295E+02   -0.64774E-07   -0.14804E-06 11948   0.161E-02    0.143E-03
DAV:   7    -0.351285910507E+02   -0.21175E-07   -0.24783E-07 12316   0.915E-03    0.866E-04
DAV:   8    -0.351285910711E+02   -0.20416E-07   -0.76189E-08  9568   0.439E-03    0.317E-04
DAV:   9    -0.351285910786E+02   -0.74947E-08   -0.25258E-08  7264   0.293E-03
   5 F= -.35128591E+02 E0= -.35117016E+02  d E =-.115281E-03
 curvature:  -1.39 expect dE=-0.235E-03 dE for cont linesearch -0.178E-06
 trial: gam= 1.29501 g(F)=  0.139E-03 g(S)=  0.305E-04 ort = 0.494E-05 (trialstep = 0.468E+00)
 search vector abs. value=  0.502E-03
 bond charge predicted
       N       E                     dE             d eps       ncg     rms          rms(c)
DAV:   1    -0.351286867529E+02   -0.95682E-04   -0.19796E-02 10428   0.814E-01    0.712E-02
DAV:   2    -0.351286756118E+02    0.11141E-04   -0.66098E-04 12788   0.254E-01    0.420E-02
DAV:   3    -0.351286472488E+02    0.28363E-04   -0.78142E-05 13072   0.132E-01    0.182E-02
DAV:   4    -0.351286429438E+02    0.43050E-05   -0.39726E-05 13272   0.585E-02    0.492E-03
DAV:   5    -0.351286429896E+02   -0.45738E-07   -0.60199E-06 11556   0.296E-02    0.241E-03
DAV:   6    -0.351286430206E+02   -0.31032E-07   -0.11555E-06 12392   0.110E-02    0.150E-03
DAV:   7    -0.351286429905E+02    0.30099E-07   -0.13345E-07 12764   0.845E-03    0.702E-04
DAV:   8    -0.351286429880E+02    0.24561E-08   -0.51850E-08 12336   0.416E-03
   6 F= -.35128643E+02 E0= -.35117054E+02  d E =-.519094E-04
 trial-energy change:   -0.000052  1 .order   -0.000054   -0.000082   -0.000027
 step:   0.6957(harm=  0.6957)  dis= 0.00118  next Energy=   -35.128652 (dE=-0.610E-04)
 bond charge predicted
       N       E                     dE             d eps       ncg     rms          rms(c)
DAV:   1    -0.351286599643E+02   -0.16974E-04   -0.46999E-03 10432   0.397E-01    0.347E-02
DAV:   2    -0.351286574351E+02    0.25292E-05   -0.15716E-04 12824   0.125E-01    0.205E-02
DAV:   3    -0.351286507013E+02    0.67339E-05   -0.18586E-05 13036   0.654E-02    0.887E-03
DAV:   4    -0.351286497228E+02    0.97844E-06   -0.95263E-06 13372   0.286E-02    0.241E-03
DAV:   5    -0.351286497095E+02    0.13282E-07   -0.14153E-06 11608   0.145E-02    0.118E-03
DAV:   6    -0.351286497138E+02   -0.42501E-08   -0.27671E-07 12380   0.529E-03    0.728E-04
DAV:   7    -0.351286497017E+02    0.12071E-07   -0.28925E-08  8264   0.383E-03    0.348E-04
DAV:   8    -0.351286496987E+02    0.30177E-08   -0.12144E-08  6204   0.221E-03
   7 F= -.35128650E+02 E0= -.35117055E+02  d E =-.586201E-04
 curvature:  -0.99 expect dE=-0.941E-04 dE for cont linesearch -0.156E-08
 trial: gam= 0.62934 g(F)=  0.891E-04 g(S)=  0.558E-05 ort =-0.887E-06 (trialstep = 0.513E+00)
 search vector abs. value=  0.292E-03
 bond charge predicted
       N       E                     dE             d eps       ncg     rms          rms(c)
DAV:   1    -0.351287262945E+02   -0.76593E-04   -0.14566E-02 10012   0.712E-01    0.587E-02
DAV:   2    -0.351287030183E+02    0.23276E-04   -0.45081E-04 11140   0.255E-01    0.319E-02
DAV:   3    -0.351286905368E+02    0.12482E-04   -0.54355E-05 12964   0.104E-01    0.147E-02
DAV:   4    -0.351286870830E+02    0.34538E-05   -0.13662E-05 13472   0.635E-02    0.346E-03
DAV:   5    -0.351286872385E+02   -0.15557E-06   -0.46953E-06 10884   0.250E-02    0.160E-03
DAV:   6    -0.351286872812E+02   -0.42647E-07   -0.78974E-07 12624   0.112E-02    0.107E-03
DAV:   7    -0.351286872972E+02   -0.15998E-07   -0.12708E-07 11428   0.841E-03    0.533E-04
DAV:   8    -0.351286873108E+02   -0.13603E-07   -0.47020E-08  8568   0.302E-03    0.176E-04
DAV:   9    -0.351286873149E+02   -0.40859E-08   -0.13977E-08  6600   0.120E-03
   8 F= -.35128687E+02 E0= -.35117085E+02  d E =-.376161E-04
 trial-energy change:   -0.000038  1 .order   -0.000037   -0.000048   -0.000027
 step:   1.0855(harm=  1.1426)  dis= 0.00131  next Energy=   -35.128702 (dE=-0.527E-04)
 bond charge predicted
       N       E                     dE             d eps       ncg     rms          rms(c)
DAV:   1    -0.351287521896E+02   -0.64879E-04   -0.18098E-02 10012   0.794E-01    0.654E-02
DAV:   2    -0.351287233010E+02    0.28889E-04   -0.55967E-04 11132   0.283E-01    0.356E-02
DAV:   3    -0.351287078545E+02    0.15447E-04   -0.67559E-05 12964   0.115E-01    0.164E-02
DAV:   4    -0.351287035820E+02    0.42724E-05   -0.16952E-05 13512   0.707E-02    0.385E-03
DAV:   5    -0.351287037804E+02   -0.19835E-06   -0.58200E-06 10876   0.276E-02    0.179E-03
DAV:   6    -0.351287038329E+02   -0.52541E-07   -0.96665E-07 12712   0.120E-02    0.118E-03
DAV:   7    -0.351287038512E+02   -0.18266E-07   -0.15709E-07 11884   0.934E-03    0.585E-04
DAV:   8    -0.351287038667E+02   -0.15543E-07   -0.58693E-08  8996   0.335E-03    0.194E-04
DAV:   9    -0.351287038713E+02   -0.46139E-08   -0.16358E-08  6644   0.123E-03
   9 F= -.35128704E+02 E0= -.35117093E+02  d E =-.541726E-04
 curvature:  -1.76 expect dE=-0.687E-04 dE for cont linesearch -0.156E-06
 trial: gam= 0.30670 g(F)=  0.251E-04 g(S)=  0.140E-04 ort = 0.509E-05 (trialstep = 0.628E+00)
 search vector abs. value=  0.697E-04
 bond charge predicted
       N       E                     dE             d eps       ncg     rms          rms(c)
DAV:   1    -0.351287252133E+02   -0.21347E-04   -0.53581E-03  9896   0.406E-01    0.250E-02
DAV:   2    -0.351287290390E+02   -0.38257E-05   -0.14774E-04 14104   0.123E-01    0.147E-02
DAV:   3    -0.351287264313E+02    0.26077E-05   -0.12021E-05 13152   0.512E-02    0.814E-03
DAV:   4    -0.351287255872E+02    0.84407E-06   -0.52199E-06 12884   0.284E-02    0.259E-03
DAV:   5    -0.351287255249E+02    0.62345E-07   -0.12524E-06 12908   0.161E-02    0.108E-03
DAV:   6    -0.351287255449E+02   -0.19994E-07   -0.42756E-07 11508   0.819E-03    0.733E-04
DAV:   7    -0.351287255362E+02    0.86566E-08   -0.60666E-08 10984   0.317E-03
  10 F= -.35128726E+02 E0= -.35117120E+02  d E =-.216649E-04
 trial-energy change:   -0.000022  1 .order   -0.000021   -0.000025   -0.000017
 step:   1.5686(harm=  1.9701)  dis= 0.00118  next Energy=   -35.128739 (dE=-0.355E-04)
 bond charge predicted
       N       E                     dE             d eps       ncg     rms          rms(c)
DAV:   1    -0.351287424967E+02   -0.16952E-04   -0.12035E-02  9900   0.607E-01    0.376E-02
DAV:   2    -0.351287509136E+02   -0.84169E-05   -0.33155E-04 14088   0.183E-01    0.221E-02
DAV:   3    -0.351287450083E+02    0.59053E-05   -0.26989E-05 13140   0.757E-02    0.122E-02
DAV:   4    -0.351287430350E+02    0.19733E-05   -0.11609E-05 12700   0.426E-02    0.389E-03
DAV:   5    -0.351287429065E+02    0.12850E-06   -0.28833E-06 12876   0.243E-02    0.162E-03
DAV:   6    -0.351287429549E+02   -0.48333E-07   -0.98677E-07 11508   0.123E-02    0.111E-03
DAV:   7    -0.351287429425E+02    0.12398E-07   -0.14500E-07 12148   0.491E-03    0.602E-04
DAV:   8    -0.351287429274E+02    0.15068E-07   -0.35574E-08  8668   0.384E-03    0.275E-04
DAV:   9    -0.351287429241E+02    0.32828E-08   -0.85888E-09  6228   0.194E-03
  11 F= -.35128743E+02 E0= -.35117146E+02  d E =-.390528E-04
 curvature:  -1.54 expect dE=-0.370E-04 dE for cont linesearch -0.163E-05
 ZBRENT: extrapolating
 opt :   1.9927  next Energy=   -35.128745 (dE=-0.409E-04)
 bond charge predicted
       N       E                     dE             d eps       ncg     rms          rms(c)
DAV:   1    -0.351287446603E+02   -0.17329E-05   -0.24462E-03  9924   0.274E-01    0.169E-02
DAV:   2    -0.351287464272E+02   -0.17669E-05   -0.67560E-05 14096   0.832E-02    0.996E-03
DAV:   3    -0.351287452530E+02    0.11742E-05   -0.55285E-06 13104   0.347E-02    0.550E-03
DAV:   4    -0.351287448834E+02    0.36963E-06   -0.23951E-06 12852   0.192E-02    0.176E-03
DAV:   5    -0.351287448530E+02    0.30385E-07   -0.57768E-07 12912   0.110E-02    0.732E-04
DAV:   6    -0.351287448621E+02   -0.91218E-08   -0.19760E-07 11464   0.558E-03    0.497E-04
DAV:   7    -0.351287448558E+02    0.62691E-08   -0.24752E-08  6876   0.215E-03
  12 F= -.35128745E+02 E0= -.35117152E+02  d E =-.409845E-04
 curvature:  -1.72 expect dE=-0.642E-04 dE for cont linesearch -0.103E-08
 trial: gam= 1.03119 g(F)=  0.335E-04 g(S)=  0.389E-05 ort =-0.205E-06 (trialstep = 0.565E+00)
 search vector abs. value=  0.111E-03
 bond charge predicted
       N       E                     dE             d eps       ncg     rms          rms(c)
DAV:   1    -0.351287522719E+02   -0.74098E-05   -0.75713E-03  9956   0.479E-01    0.193E-02
DAV:   2    -0.351287628195E+02   -0.10548E-04   -0.15026E-04 13224   0.934E-02    0.116E-02
DAV:   3    -0.351287615698E+02    0.12496E-05   -0.80332E-06 13192   0.342E-02    0.692E-03
DAV:   4    -0.351287610482E+02    0.52160E-06   -0.32902E-06 11760   0.240E-02    0.216E-03
DAV:   5    -0.351287610282E+02    0.20004E-07   -0.84428E-07 11676   0.119E-02    0.985E-04
DAV:   6    -0.351287610240E+02    0.42646E-08   -0.24533E-07 12460   0.554E-03    0.646E-04
DAV:   7    -0.351287610155E+02    0.84992E-08   -0.29458E-08  7308   0.379E-03
  13 F= -.35128761E+02 E0= -.35117170E+02  d E =-.161596E-04
 trial-energy change:   -0.000016  1 .order   -0.000016   -0.000021   -0.000010
 step:   0.9214(harm=  1.1007)  dis= 0.00087  next Energy=   -35.128764 (dE=-0.195E-04)
 bond charge predicted
       N       E                     dE             d eps       ncg     rms          rms(c)
DAV:   1    -0.351287621466E+02   -0.11226E-05   -0.30076E-03  9952   0.302E-01    0.122E-02
DAV:   2    -0.351287664053E+02   -0.42587E-05   -0.59937E-05 13224   0.595E-02    0.732E-03
DAV:   3    -0.351287659217E+02    0.48357E-06   -0.32797E-06 13108   0.223E-02    0.438E-03
DAV:   4    -0.351287657304E+02    0.19128E-06   -0.13287E-06 11880   0.155E-02    0.138E-03
DAV:   5    -0.351287657166E+02    0.13835E-07   -0.34748E-07 11620   0.759E-03    0.629E-04
DAV:   6    -0.351287657112E+02    0.53251E-08   -0.10193E-07 11636   0.354E-03    0.414E-04
DAV:   7    -0.351287657063E+02    0.49408E-08   -0.12045E-08  6304   0.244E-03
  14 F= -.35128766E+02 E0= -.35117175E+02  d E =-.208505E-04
 curvature:  -1.46 expect dE=-0.615E-04 dE for cont linesearch -0.522E-06
 trial: gam= 0.93443 g(F)=  0.257E-04 g(S)=  0.164E-04 ort = 0.630E-05 (trialstep = 0.468E+00)
 search vector abs. value=  0.151E-03
 bond charge predicted
       N       E                     dE             d eps       ncg     rms          rms(c)
DAV:   1    -0.351287905041E+02   -0.24793E-04   -0.68234E-03  9904   0.525E-01    0.382E-02
DAV:   2    -0.351287870343E+02    0.34698E-05   -0.29056E-04 10808   0.200E-01    0.169E-02
DAV:   3    -0.351287851741E+02    0.18602E-05   -0.26391E-05 14064   0.596E-02    0.915E-03
DAV:   4    -0.351287838638E+02    0.13103E-05   -0.43796E-06 12972   0.287E-02    0.326E-03
DAV:   5    -0.351287836735E+02    0.19024E-06   -0.13053E-06 11648   0.128E-02    0.112E-03
DAV:   6    -0.351287836711E+02    0.24229E-08   -0.33804E-07 11796   0.635E-03    0.636E-04
DAV:   7    -0.351287836824E+02   -0.11260E-07   -0.28757E-08  7968   0.356E-03    0.384E-04
DAV:   8    -0.351287837005E+02   -0.18155E-07   -0.15495E-08  6764   0.115E-03    0.173E-04
DAV:   9    -0.351287837033E+02   -0.27521E-08   -0.49339E-09  6080   0.100E-03
  15 F= -.35128784E+02 E0= -.35117188E+02  d E =-.179970E-04
 trial-energy change:   -0.000018  1 .order   -0.000018   -0.000022   -0.000013
 step:   0.9376(harm=  1.1026)  dis= 0.00107  next Energy=   -35.128790 (dE=-0.248E-04)
 bond charge predicted
       N       E                     dE             d eps       ncg     rms          rms(c)
DAV:   1    -0.351287988391E+02   -0.15139E-04   -0.68446E-03  9904   0.526E-01    0.382E-02
DAV:   2    -0.351287953791E+02    0.34600E-05   -0.29114E-04 10812   0.200E-01    0.169E-02
DAV:   3    -0.351287935063E+02    0.18728E-05   -0.26344E-05 14072   0.594E-02    0.915E-03
DAV:   4    -0.351287921925E+02    0.13138E-05   -0.43768E-06 12992   0.287E-02    0.325E-03
DAV:   5    -0.351287920033E+02    0.18915E-06   -0.13027E-06 11648   0.128E-02    0.112E-03
DAV:   6    -0.351287920009E+02    0.23715E-08   -0.33691E-07 11756   0.634E-03    0.635E-04
DAV:   7    -0.351287920117E+02   -0.10718E-07   -0.28328E-08  7944   0.355E-03    0.384E-04
DAV:   8    -0.351287920304E+02   -0.18701E-07   -0.15175E-08  6664   0.115E-03    0.170E-04
DAV:   9    -0.351287920329E+02   -0.25120E-08   -0.49387E-09  6092   0.102E-03
  16 F= -.35128792E+02 E0= -.35117190E+02  d E =-.263266E-04
 curvature:  -1.61 expect dE=-0.294E-04 dE for cont linesearch -0.512E-06
 ZBRENT: extrapolating
 opt :   1.0944  next Energy=   -35.128793 (dE=-0.269E-04)
 bond charge predicted
       N       E                     dE             d eps       ncg     rms          rms(c)
DAV:   1    -0.351287934650E+02   -0.14347E-05   -0.76455E-04  9904   0.176E-01    0.128E-02
DAV:   2    -0.351287931142E+02    0.35087E-06   -0.32506E-05 10844   0.667E-02    0.563E-03
DAV:   3    -0.351287928597E+02    0.25450E-06   -0.29360E-06 14104   0.197E-02    0.306E-03
DAV:   4    -0.351287926805E+02    0.17921E-06   -0.48668E-07 13044   0.953E-03    0.109E-03
DAV:   5    -0.351287926475E+02    0.32985E-07   -0.14389E-07 11032   0.424E-03    0.375E-04
DAV:   6    -0.351287926447E+02    0.27944E-08   -0.36424E-08  9644   0.211E-03
  17 F= -.35128793E+02 E0= -.35117189E+02  d E =-.269384E-04
 curvature:  -1.71 expect dE=-0.484E-04 dE for cont linesearch -0.534E-09
 trial: gam= 0.98964 g(F)=  0.220E-04 g(S)=  0.628E-05 ort =-0.217E-06 (trialstep = 0.510E+00)
 search vector abs. value=  0.176E-03
 bond charge predicted
       N       E                     dE             d eps       ncg     rms          rms(c)
DAV:   1    -0.351287962895E+02   -0.36421E-05   -0.96037E-03  9880   0.549E-01    0.234E-02
DAV:   2    -0.351288083289E+02   -0.12039E-04   -0.18887E-04 12532   0.107E-01    0.137E-02
DAV:   3    -0.351288066942E+02    0.16347E-05   -0.90144E-06 12404   0.369E-02    0.759E-03
DAV:   4    -0.351288060973E+02    0.59689E-06   -0.30066E-06 14256   0.234E-02    0.195E-03
DAV:   5    -0.351288060721E+02    0.25257E-07   -0.10009E-06 12320   0.132E-02    0.924E-04
DAV:   6    -0.351288060853E+02   -0.13177E-07   -0.22451E-07 12728   0.540E-03    0.591E-04
DAV:   7    -0.351288060843E+02    0.93269E-09   -0.36780E-08  8480   0.268E-03
  18 F= -.35128806E+02 E0= -.35117196E+02  d E =-.134396E-04
 trial-energy change:   -0.000013  1 .order   -0.000011   -0.000014   -0.000008
 step:   0.6928(harm=  1.2198)  dis= 0.00094  next Energy=   -35.128808 (dE=-0.150E-04)
 bond charge predicted
       N       E                     dE             d eps       ncg     rms          rms(c)
DAV:   1    -0.351288076006E+02   -0.15154E-05   -0.12361E-03  9880   0.197E-01    0.846E-03
DAV:   2    -0.351288091904E+02   -0.15898E-05   -0.24536E-05 12532   0.381E-02    0.493E-03
DAV:   3    -0.351288089791E+02    0.21124E-06   -0.11635E-06 12344   0.124E-02    0.275E-03
DAV:   4    -0.351288089101E+02    0.69089E-07   -0.40544E-07 14208   0.838E-03    0.742E-04
DAV:   5    -0.351288088966E+02    0.13413E-07   -0.12963E-07 12144   0.481E-03    0.333E-04
DAV:   6    -0.351288088982E+02   -0.15202E-08   -0.27377E-08  7664   0.172E-03
  19 F= -.35128809E+02 E0= -.35117197E+02  d E =-.162535E-04
 curvature:  -1.71 expect dE=-0.293E-04 dE for cont linesearch -0.147E-05
 ZBRENT: increasing intervall
 opt :   1.0585  next Energy=   -35.128812 (dE=-0.193E-04)
 bond charge predicted
       N       E                     dE             d eps       ncg     rms          rms(c)
DAV:   1    -0.351288071933E+02    0.17034E-05   -0.49394E-03  9880   0.394E-01    0.168E-02
DAV:   2    -0.351288134264E+02   -0.62331E-05   -0.97255E-05 12540   0.769E-02    0.981E-03
DAV:   3    -0.351288125924E+02    0.83395E-06   -0.46728E-06 12392   0.264E-02    0.545E-03
DAV:   4    -0.351288122930E+02    0.29942E-06   -0.15484E-06 14264   0.170E-02    0.140E-03
DAV:   5    -0.351288122723E+02    0.20741E-07   -0.51794E-07 12364   0.954E-03    0.664E-04
DAV:   6    -0.351288122792E+02   -0.68858E-08   -0.11641E-07 11844   0.385E-03    0.422E-04
DAV:   7    -0.351288122784E+02    0.81855E-09   -0.17178E-08  6996   0.195E-03
  20 F= -.35128812E+02 E0= -.35117196E+02  d E =-.196337E-04
 curvature:  -3.50 expect dE=-0.729E-04 dE for cont linesearch -0.326E-06
 trial: gam= 0.36652 g(F)=  0.188E-04 g(S)=  0.207E-05 ort = 0.404E-05 (trialstep = 0.620E+00)
 search vector abs. value=  0.474E-04
 bond charge predicted
       N       E                     dE             d eps       ncg     rms          rms(c)
DAV:   1    -0.351288171822E+02   -0.49030E-05   -0.35871E-03  9864   0.341E-01    0.174E-02
DAV:   2    -0.351288239656E+02   -0.67834E-05   -0.11683E-04 14368   0.918E-02    0.109E-02
DAV:   3    -0.351288231593E+02    0.80624E-06   -0.67784E-06 12140   0.278E-02    0.664E-03
DAV:   4    -0.351288228202E+02    0.33914E-06   -0.32566E-06 13564   0.236E-02    0.268E-03
DAV:   5    -0.351288227192E+02    0.10102E-06   -0.92463E-07 15624   0.146E-02    0.880E-04
DAV:   6    -0.351288227387E+02   -0.19511E-07   -0.25835E-07 11204   0.386E-03    0.466E-04
DAV:   7    -0.351288227311E+02    0.75315E-08   -0.14632E-08  6276   0.162E-03
  21 F= -.35128823E+02 E0= -.35117206E+02  d E =-.104528E-04
 trial-energy change:   -0.000010  1 .order   -0.000010   -0.000014   -0.000007
 step:   1.1314(harm=  1.2273)  dis= 0.00074  next Energy=   -35.128826 (dE=-0.133E-04)
 bond charge predicted
       N       E                     dE             d eps       ncg     rms          rms(c)
DAV:   1    -0.351288223546E+02    0.38409E-06   -0.24473E-03  9864   0.282E-01    0.144E-02
DAV:   2    -0.351288269867E+02   -0.46321E-05   -0.79784E-05 14360   0.755E-02    0.901E-03
DAV:   3    -0.351288264473E+02    0.53934E-06   -0.46134E-06 12116   0.226E-02    0.548E-03
DAV:   4    -0.351288262244E+02    0.22291E-06   -0.22125E-06 13512   0.192E-02    0.221E-03
DAV:   5    -0.351288261563E+02    0.68113E-07   -0.63488E-07 15544   0.118E-02    0.734E-04
DAV:   6    -0.351288261695E+02   -0.13221E-07   -0.17397E-07 11220   0.306E-03    0.375E-04
DAV:   7    -0.351288261643E+02    0.52764E-08   -0.10232E-08  6248   0.112E-03
  22 F= -.35128826E+02 E0= -.35117210E+02  d E =-.138859E-04
 curvature:  -1.27 expect dE=-0.114E-04 dE for cont linesearch -0.938E-07
 trial: gam= 0.44730 g(F)=  0.622E-05 g(S)=  0.275E-05 ort = 0.187E-05 (trialstep = 0.722E+00)
 search vector abs. value=  0.201E-04
 bond charge predicted
       N       E                     dE             d eps       ncg     rms          rms(c)
DAV:   1    -0.351288338835E+02   -0.77140E-05   -0.20491E-03  9900   0.271E-01    0.199E-02
DAV:   2    -0.351288334832E+02    0.40030E-06   -0.76563E-05 12704   0.953E-02    0.957E-03
DAV:   3    -0.351288327254E+02    0.75787E-06   -0.68377E-06 12644   0.304E-02    0.511E-03
DAV:   4    -0.351288322676E+02    0.45774E-06   -0.15946E-06 14744   0.184E-02    0.157E-03
DAV:   5    -0.351288322158E+02    0.51864E-07   -0.41190E-07 12144   0.931E-03    0.649E-04
DAV:   6    -0.351288322077E+02    0.80800E-08   -0.10188E-07 11896   0.380E-03    0.424E-04
DAV:   7    -0.351288322070E+02    0.72123E-09   -0.10271E-08  6256   0.237E-03
  23 F= -.35128832E+02 E0= -.35117217E+02  d E =-.604268E-05
 trial-energy change:   -0.000006  1 .order   -0.000006   -0.000007   -0.000005
 step:   1.6805(harm=  2.2567)  dis= 0.00072  next Energy=   -35.128836 (dE=-0.947E-05)
 bond charge predicted
       N       E                     dE             d eps       ncg     rms          rms(c)
DAV:   1    -0.351288400061E+02   -0.77984E-05   -0.36124E-03  9900   0.360E-01    0.264E-02
DAV:   2    -0.351288392262E+02    0.77993E-06   -0.13503E-04 12704   0.126E-01    0.127E-02
DAV:   3    -0.351288379400E+02    0.12861E-05   -0.11997E-05 12632   0.398E-02    0.677E-03
DAV:   4    -0.351288371751E+02    0.76497E-06   -0.27912E-06 14776   0.240E-02    0.207E-03
DAV:   5    -0.351288370988E+02    0.76259E-07   -0.72354E-07 12136   0.120E-02    0.861E-04
DAV:   6    -0.351288370908E+02    0.79895E-08   -0.17436E-07 12000   0.495E-03    0.559E-04
DAV:   7    -0.351288370890E+02    0.18613E-08   -0.17670E-08  6432   0.318E-03
  24 F= -.35128837E+02 E0= -.35117223E+02  d E =-.109247E-04
 curvature:  -1.99 expect dE=-0.125E-04 dE for cont linesearch -0.808E-06
 ZBRENT: increasing intervall
 opt :   3.5975  next Energy=   -35.128835 (dE=-0.911E-05)
 bond charge predicted
       N       E                     dE             d eps       ncg     rms          rms(c)
DAV:   1    -0.351288473862E+02   -0.10295E-04   -0.14450E-02  9900   0.721E-01    0.528E-02
DAV:   2    -0.351288439277E+02    0.34585E-05   -0.54014E-04 12688   0.253E-01    0.254E-02
DAV:   3    -0.351288391083E+02    0.48195E-05   -0.48027E-05 12660   0.796E-02    0.135E-02
DAV:   4    -0.351288362889E+02    0.28194E-05   -0.11102E-05 14768   0.478E-02    0.413E-03
DAV:   5    -0.351288360753E+02    0.21367E-06   -0.28782E-06 12152   0.239E-02    0.172E-03
DAV:   6    -0.351288360756E+02   -0.39381E-09   -0.69051E-07 12040   0.993E-03    0.112E-03
DAV:   7    -0.351288360709E+02    0.47712E-08   -0.81880E-08 11868   0.633E-03
  25 F= -.35128836E+02 E0= -.35117225E+02  d E =-.990661E-05
 curvature:   4.47 expect dE= 0.139E-03 dE for cont linesearch  0.526E-05
 ZBRENT: bracketing found
 ZBRENT: interpolating
 opt :   2.3900  next Energy=   -35.128838 (dE=-0.119E-04)
 bond charge predicted
       N       E                     dE             d eps       ncg     rms          rms(c)
DAV:   1    -0.351288425619E+02   -0.64862E-05   -0.57255E-03  9900   0.453E-01    0.331E-02
DAV:   2    -0.351288408240E+02    0.17379E-05   -0.21285E-04 12728   0.159E-01    0.160E-02
DAV:   3    -0.351288392160E+02    0.16080E-05   -0.18828E-05 12712   0.509E-02    0.852E-03
DAV:   4    -0.351288383530E+02    0.86296E-06   -0.43523E-06 14716   0.303E-02    0.256E-03
DAV:   5    -0.351288383633E+02   -0.10272E-07   -0.11306E-06 12180   0.154E-02    0.106E-03
DAV:   6    -0.351288383966E+02   -0.33294E-07   -0.26968E-07 11844   0.644E-03    0.695E-04
DAV:   7    -0.351288383955E+02    0.10405E-08   -0.29817E-08  7572   0.388E-03
  26 F= -.35128838E+02 E0= -.35117225E+02  d E =-.122313E-04
 curvature:  -0.86 expect dE=-0.112E-04 dE for cont linesearch -0.192E-07
 trial: gam= 1.47024 g(F)=  0.995E-05 g(S)=  0.310E-05 ort = 0.669E-06 (trialstep = 0.363E+00)
 search vector abs. value=  0.585E-04
 bond charge predicted
       N       E                     dE             d eps       ncg     rms          rms(c)
DAV:   1    -0.351288503081E+02   -0.11912E-04   -0.13913E-03 10052   0.258E-01    0.260E-02
DAV:   2    -0.351288445078E+02    0.58003E-05   -0.93725E-05 11216   0.120E-01    0.114E-02
DAV:   3    -0.351288430991E+02    0.14087E-05   -0.84804E-06 14624   0.344E-02    0.600E-03
DAV:   4    -0.351288423659E+02    0.73321E-06   -0.17108E-06 14128   0.193E-02    0.195E-03
DAV:   5    -0.351288422870E+02    0.78903E-07   -0.56048E-07 11360   0.897E-03    0.778E-04
DAV:   6    -0.351288422803E+02    0.67480E-08   -0.14313E-07 13548   0.389E-03    0.468E-04
DAV:   7    -0.351288422828E+02   -0.25198E-08   -0.10127E-08  6172   0.224E-03
  27 F= -.35128842E+02 E0= -.35117230E+02  d E =-.388725E-05
 trial-energy change:   -0.000004  1 .order   -0.000004   -0.000005   -0.000003
 step:   0.7722(harm=  0.7722)  dis= 0.00061  next Energy=   -35.128844 (dE=-0.542E-05)
 bond charge predicted
       N       E                     dE             d eps       ncg     rms          rms(c)
DAV:   1    -0.351288546611E+02   -0.12381E-04   -0.17695E-03 10060   0.291E-01    0.294E-02
DAV:   2    -0.351288471843E+02    0.74768E-05   -0.11909E-04 11228   0.135E-01    0.129E-02
DAV:   3    -0.351288454267E+02    0.17576E-05   -0.10825E-05 14660   0.382E-02    0.675E-03
DAV:   4    -0.351288445141E+02    0.91257E-06   -0.21639E-06 14180   0.215E-02    0.221E-03
DAV:   5    -0.351288444166E+02    0.97490E-07   -0.71424E-07 11348   0.992E-03    0.897E-04
DAV:   6    -0.351288444094E+02    0.71982E-08   -0.18586E-07 13688   0.441E-03    0.537E-04
DAV:   7    -0.351288444123E+02   -0.28967E-08   -0.13336E-08  6212   0.258E-03
  28 F= -.35128844E+02 E0= -.35117233E+02  d E =-.601675E-05
 curvature:  -1.61 expect dE=-0.179E-04 dE for cont linesearch -0.623E-07
 trial: gam= 0.72549 g(F)=  0.613E-05 g(S)=  0.499E-05 ort = 0.150E-05 (trialstep = 0.445E+00)
 search vector abs. value=  0.441E-04
 bond charge predicted
       N       E                     dE             d eps       ncg     rms          rms(c)
DAV:   1    -0.351288502104E+02   -0.58010E-05   -0.16379E-03 10116   0.229E-01    0.164E-02
DAV:   2    -0.351288504389E+02   -0.22847E-06   -0.41837E-05 13344   0.599E-02    0.966E-03
DAV:   3    -0.351288492618E+02    0.11771E-05   -0.38103E-06 12524   0.211E-02    0.469E-03
DAV:   4    -0.351288489865E+02    0.27527E-06   -0.13054E-06 12776   0.122E-02    0.126E-03
DAV:   5    -0.351288489696E+02    0.16872E-07   -0.38259E-07 11068   0.665E-03    0.572E-04
DAV:   6    -0.351288489648E+02    0.48644E-08   -0.83071E-08 12280   0.337E-03
  29 F= -.35128849E+02 E0= -.35117241E+02  d E =-.455249E-05
 trial-energy change:   -0.000005  1 .order   -0.000004   -0.000005   -0.000003
 step:   0.8729(harm=  1.1983)  dis= 0.00062  next Energy=   -35.128851 (dE=-0.631E-05)
 bond charge predicted
       N       E                     dE             d eps       ncg     rms          rms(c)
DAV:   1    -0.351288525292E+02   -0.35595E-05   -0.15159E-03 10120   0.221E-01    0.158E-02
DAV:   2    -0.351288527742E+02   -0.24506E-06   -0.38585E-05 13344   0.578E-02    0.930E-03
DAV:   3    -0.351288516754E+02    0.10989E-05   -0.35058E-06 12588   0.211E-02    0.447E-03
DAV:   4    -0.351288514277E+02    0.24765E-06   -0.12228E-06 12740   0.125E-02    0.119E-03
DAV:   5    -0.351288514128E+02    0.14947E-07   -0.34123E-07 11044   0.624E-03    0.542E-04
DAV:   6    -0.351288514076E+02    0.51486E-08   -0.73461E-08 11824   0.306E-03
  30 F= -.35128851E+02 E0= -.35117247E+02  d E =-.699532E-05
 curvature:  -1.76 expect dE=-0.909E-05 dE for cont linesearch -0.430E-06
 ZBRENT: increasing intervall
 opt :   1.7290  next Energy=   -35.128850 (dE=-0.605E-05)
 bond charge predicted
       N       E                     dE             d eps       ncg     rms          rms(c)
DAV:   1    -0.351288569587E+02   -0.55459E-05   -0.60637E-03 10120   0.441E-01    0.316E-02
DAV:   2    -0.351288578730E+02   -0.91433E-06   -0.15449E-04 13336   0.115E-01    0.186E-02
DAV:   3    -0.351288533739E+02    0.44991E-05   -0.14012E-05 12584   0.417E-02    0.896E-03
DAV:   4    -0.351288523001E+02    0.10738E-05   -0.48497E-06 12692   0.242E-02    0.238E-03
DAV:   5    -0.351288522714E+02    0.28703E-07   -0.13877E-06 11084   0.126E-02    0.109E-03
DAV:   6    -0.351288522656E+02    0.58139E-08   -0.30095E-07 12904   0.635E-03    0.759E-04
DAV:   7    -0.351288522522E+02    0.13322E-07   -0.34483E-08  9116   0.316E-03    0.445E-04
DAV:   8    -0.351288522408E+02    0.11462E-07   -0.26464E-08  9180   0.164E-03    0.219E-04
DAV:   9    -0.351288522391E+02    0.16762E-08   -0.48170E-09  6028   0.127E-03
  31 F= -.35128852E+02 E0= -.35117255E+02  d E =-.782681E-05
 curvature:   3.89 expect dE= 0.979E-04 dE for cont linesearch  0.255E-05
 ZBRENT: bracketing found
 ZBRENT: interpolating
 opt :   1.1973  next Energy=   -35.128852 (dE=-0.753E-05)
 bond charge predicted
       N       E                     dE             d eps       ncg     rms          rms(c)
DAV:   1    -0.351288539911E+02   -0.17503E-05   -0.23394E-03 10120   0.274E-01    0.196E-02
DAV:   2    -0.351288542897E+02   -0.29860E-06   -0.59721E-05 13344   0.719E-02    0.115E-02
DAV:   3    -0.351288524444E+02    0.18453E-05   -0.54094E-06 12528   0.260E-02    0.559E-03
DAV:   4    -0.351288519464E+02    0.49799E-06   -0.18660E-06 12736   0.147E-02    0.149E-03
DAV:   5    -0.351288519672E+02   -0.20764E-07   -0.54417E-07 11088   0.797E-03    0.681E-04
DAV:   6    -0.351288519777E+02   -0.10515E-07   -0.11789E-07 12936   0.409E-03    0.472E-04
DAV:   7    -0.351288519816E+02   -0.38895E-08   -0.12221E-08  6184   0.196E-03
  32 F= -.35128852E+02 E0= -.35117250E+02  d E =-.756932E-05
 curvature:  -0.81 expect dE=-0.773E-05 dE for cont linesearch -0.699E-09
 trial: gam= 1.05808 g(F)=  0.817E-05 g(S)=  0.136E-05 ort = 0.195E-06 (trialstep = 0.443E+00)
 search vector abs. value=  0.593E-04
 bond charge predicted
       N       E                     dE             d eps       ncg     rms          rms(c)
DAV:   1    -0.351288591010E+02   -0.71233E-05   -0.21787E-03  9924   0.259E-01    0.166E-02
DAV:   2    -0.351288585392E+02    0.56188E-06   -0.41350E-05 12652   0.678E-02    0.953E-03
DAV:   3    -0.351288575166E+02    0.10225E-05   -0.41836E-06 12144   0.278E-02    0.477E-03
DAV:   4    -0.351288572622E+02    0.25443E-06   -0.14192E-06 12712   0.188E-02    0.132E-03
DAV:   5    -0.351288572627E+02   -0.48703E-09   -0.40429E-07 13412   0.971E-03    0.605E-04
DAV:   6    -0.351288572724E+02   -0.97421E-08   -0.11951E-07 12756   0.355E-03    0.477E-04
DAV:   7    -0.351288572691E+02    0.33588E-08   -0.10644E-08  6108   0.153E-03
  33 F= -.35128857E+02 E0= -.35117261E+02  d E =-.528748E-05
 trial-energy change:   -0.000005  1 .order   -0.000004   -0.000004   -0.000003
 step:   1.5696(harm=  1.5696)  dis= 0.00145  next Energy=   -35.128860 (dE=-0.764E-05)
 bond charge predicted
       N       E                     dE             d eps       ncg     rms          rms(c)
DAV:   1    -0.351288724706E+02   -0.15198E-04   -0.14125E-02  9924   0.659E-01    0.425E-02
DAV:   2    -0.351288689131E+02    0.35575E-05   -0.26748E-04 12620   0.172E-01    0.243E-02
DAV:   3    -0.351288620736E+02    0.68395E-05   -0.27625E-05 12136   0.698E-02    0.122E-02
DAV:   4    -0.351288602329E+02    0.18407E-05   -0.92674E-06 12772   0.478E-02    0.339E-03
DAV:   5    -0.351288602201E+02    0.12731E-07   -0.26683E-06 13552   0.249E-02    0.154E-03
DAV:   6    -0.351288602724E+02   -0.52210E-07   -0.78715E-07 12828   0.887E-03    0.122E-03
DAV:   7    -0.351288602561E+02    0.16297E-07   -0.82233E-08 12276   0.387E-03    0.651E-04
DAV:   8    -0.351288602497E+02    0.63287E-08   -0.39433E-08 10568   0.225E-03
  34 F= -.35128860E+02 E0= -.35117278E+02  d E =-.826812E-05
 curvature:  -4.78 expect dE=-0.642E-04 dE for cont linesearch -0.514E-07
 trial: gam= 1.18151 g(F)=  0.832E-05 g(S)=  0.511E-05 ort = 0.799E-06 (trialstep = 0.404E+00)
 search vector abs. value=  0.981E-04
 bond charge predicted
       N       E                     dE             d eps       ncg     rms          rms(c)
DAV:   1    -0.351288679151E+02   -0.76591E-05   -0.30312E-03  9932   0.315E-01    0.220E-02
DAV:   2    -0.351288667461E+02    0.11690E-05   -0.77831E-05 11856   0.960E-02    0.115E-02
DAV:   3    -0.351288655916E+02    0.11545E-05   -0.84704E-06 13280   0.283E-02    0.616E-03
DAV:   4    -0.351288651040E+02    0.48769E-06   -0.21058E-06 13768   0.159E-02    0.197E-03
DAV:   5    -0.351288650695E+02    0.34424E-07   -0.63339E-07 11036   0.792E-03    0.758E-04
DAV:   6    -0.351288650717E+02   -0.21860E-08   -0.15761E-07 12956   0.284E-03    0.526E-04
DAV:   7    -0.351288650654E+02    0.63569E-08   -0.13556E-08  6260   0.142E-03
  35 F= -.35128865E+02 E0= -.35117291E+02  d E =-.481563E-05
 trial-energy change:   -0.000005  1 .order   -0.000005   -0.000006   -0.000004
 step:   0.9726(harm=  1.1380)  dis= 0.00118  next Energy=   -35.128868 (dE=-0.757E-05)
 bond charge predicted
       N       E                     dE             d eps       ncg     rms          rms(c)
DAV:   1    -0.351288743843E+02   -0.93126E-05   -0.60134E-03  9932   0.443E-01    0.310E-02
DAV:   2    -0.351288720372E+02    0.23472E-05   -0.15408E-04 11840   0.135E-01    0.161E-02
DAV:   3    -0.351288696835E+02    0.23537E-05   -0.16915E-05 13304   0.398E-02    0.867E-03
DAV:   4    -0.351288686670E+02    0.10164E-05   -0.41718E-06 13676   0.221E-02    0.276E-03
DAV:   5    -0.351288685996E+02    0.67443E-07   -0.12489E-06 11044   0.109E-02    0.106E-03
DAV:   6    -0.351288686062E+02   -0.66179E-08   -0.30890E-07 13048   0.395E-03    0.739E-04
DAV:   7    -0.351288685959E+02    0.10355E-07   -0.28628E-08  9444   0.186E-03    0.460E-04
DAV:   8    -0.351288685841E+02    0.11726E-07   -0.19062E-08  8140   0.169E-03    0.174E-04
DAV:   9    -0.351288685808E+02    0.33665E-08   -0.39691E-09  6080   0.116E-03
  36 F= -.35128869E+02 E0= -.35117306E+02  d E =-.833105E-05
 curvature:  -3.69 expect dE=-0.299E-04 dE for cont linesearch -0.328E-06
 ZBRENT: extrapolating
 opt :   1.2385  next Energy=   -35.128869 (dE=-0.872E-05)
 bond charge predicted
       N       E                     dE             d eps       ncg     rms          rms(c)
DAV:   1    -0.351288701371E+02   -0.15530E-05   -0.13146E-03  9940   0.207E-01    0.145E-02
DAV:   2    -0.351288696197E+02    0.51738E-06   -0.33763E-05 11872   0.632E-02    0.754E-03
DAV:   3    -0.351288691434E+02    0.47628E-06   -0.36647E-06 13288   0.185E-02    0.405E-03
DAV:   4    -0.351288689500E+02    0.19339E-06   -0.90929E-07 13700   0.103E-02    0.129E-03
DAV:   5    -0.351288689346E+02    0.15467E-07   -0.27340E-07 11052   0.515E-03    0.498E-04
DAV:   6    -0.351288689351E+02   -0.48158E-09   -0.66900E-08 11992   0.184E-03
  37 F= -.35128869E+02 E0= -.35117312E+02  d E =-.868533E-05
 curvature:  -4.42 expect dE=-0.574E-04 dE for cont linesearch -0.639E-08
 trial: gam= 1.09821 g(F)=  0.629E-05 g(S)=  0.672E-05 ort =-0.377E-06 (trialstep = 0.429E+00)
 search vector abs. value=  0.130E-03
 bond charge predicted
       N       E                     dE             d eps       ncg     rms          rms(c)
DAV:   1    -0.351288787515E+02   -0.98169E-05   -0.45762E-03  9948   0.371E-01    0.228E-02
DAV:   2    -0.351288793532E+02   -0.60169E-06   -0.91143E-05 13592   0.900E-02    0.134E-02
DAV:   3    -0.351288771581E+02    0.21951E-05   -0.68555E-06 12352   0.241E-02    0.653E-03
DAV:   4    -0.351288764671E+02    0.69099E-06   -0.20424E-06 13148   0.136E-02    0.158E-03
DAV:   5    -0.351288764660E+02    0.11305E-08   -0.65583E-07 11320   0.821E-03    0.719E-04
DAV:   6    -0.351288764789E+02   -0.12912E-07   -0.11933E-07 11552   0.288E-03    0.567E-04
DAV:   7    -0.351288764796E+02   -0.68076E-09   -0.10021E-08  6192   0.199E-03
  38 F= -.35128876E+02 E0= -.35117328E+02  d E =-.754454E-05
 trial-energy change:   -0.000008  1 .order   -0.000004   -0.000005   -0.000003
 step:   0.9969(harm=  0.9969)  dis= 0.00141  next Energy=   -35.128875 (dE=-0.628E-05)
 bond charge predicted
       N       E                     dE             d eps       ncg     rms          rms(c)
DAV:   1    -0.351288827423E+02   -0.62634E-05   -0.80165E-03  9952   0.492E-01    0.303E-02
DAV:   2    -0.351288836729E+02   -0.93054E-06   -0.16039E-04 13640   0.119E-01    0.177E-02
DAV:   3    -0.351288798684E+02    0.38044E-05   -0.12096E-05 12292   0.317E-02    0.873E-03
DAV:   4    -0.351288786509E+02    0.12175E-05   -0.36486E-06 13252   0.178E-02    0.214E-03
DAV:   5    -0.351288786445E+02    0.64292E-08   -0.11895E-06 11408   0.108E-02    0.962E-04
DAV:   6    -0.351288786652E+02   -0.20720E-07   -0.21247E-07 11496   0.348E-03    0.750E-04
DAV:   7    -0.351288786646E+02    0.64801E-09   -0.18627E-08  6608   0.246E-03
  39 F= -.35128879E+02 E0= -.35117342E+02  d E =-.972953E-05
 curvature:  -5.17 expect dE=-0.553E-04 dE for cont linesearch -0.403E-10
 trial: gam= 0.71461 g(F)=  0.898E-05 g(S)=  0.173E-05 ort =-0.319E-07 (trialstep = 0.543E+00)
 search vector abs. value=  0.773E-04
 bond charge predicted
       N       E                     dE             d eps       ncg     rms          rms(c)
DAV:   1    -0.351288890073E+02   -0.10342E-04   -0.42773E-03 10124   0.370E-01    0.274E-02
DAV:   2    -0.351288873875E+02    0.16198E-05   -0.10655E-04 12952   0.111E-01    0.155E-02
DAV:   3    -0.351288843206E+02    0.30669E-05   -0.11103E-05 12692   0.406E-02    0.723E-03
DAV:   4    -0.351288835019E+02    0.81866E-06   -0.34393E-06 13260   0.269E-02    0.170E-03
DAV:   5    -0.351288835049E+02   -0.30036E-08   -0.11319E-06 11072   0.122E-02    0.903E-04
DAV:   6    -0.351288835121E+02   -0.72046E-08   -0.25618E-07 14344   0.483E-03    0.625E-04
DAV:   7    -0.351288835068E+02    0.53415E-08   -0.20262E-08  6672   0.330E-03
  40 F= -.35128884E+02 E0= -.35117353E+02  d E =-.484219E-05
 trial-energy change:   -0.000005  1 .order   -0.000004   -0.000006   -0.000003
 step:   0.8200(harm=  1.1759)  dis= 0.00084  next Energy=   -35.128884 (dE=-0.569E-05)
 bond charge predicted
       N       E                     dE             d eps       ncg     rms          rms(c)
DAV:   1    -0.351288864305E+02   -0.29184E-05   -0.11179E-03 10132   0.189E-01    0.140E-02
DAV:   2    -0.351288860414E+02    0.38908E-06   -0.27859E-05 12912   0.569E-02    0.791E-03
DAV:   3    -0.351288852150E+02    0.82638E-06   -0.29210E-06 12644   0.208E-02    0.370E-03
DAV:   4    -0.351288849959E+02    0.21911E-06   -0.91053E-07 13276   0.139E-02    0.879E-04
DAV:   5    -0.351288849890E+02    0.68658E-08   -0.30403E-07 11116   0.631E-03    0.464E-04
DAV:   6    -0.351288849895E+02   -0.42246E-09   -0.66201E-08 11296   0.234E-03
  41 F= -.35128885E+02 E0= -.35117358E+02  d E =-.632487E-05
 curvature:  -2.91 expect dE=-0.129E-04 dE for cont linesearch -0.439E-06
 ZBRENT: increasing intervall
 opt :   1.3747  next Energy=   -35.128886 (dE=-0.692E-05)
 bond charge predicted
       N       E                     dE             d eps       ncg     rms          rms(c)
DAV:   1    -0.351288883786E+02   -0.33896E-05   -0.44684E-03 10120   0.379E-01    0.280E-02
DAV:   2    -0.351288867727E+02    0.16060E-05   -0.11124E-04 12944   0.114E-01    0.158E-02
DAV:   3    -0.351288835578E+02    0.32148E-05   -0.11529E-05 12724   0.420E-02    0.735E-03
DAV:   4    -0.351288827163E+02    0.84149E-06   -0.36090E-06 13156   0.277E-02    0.172E-03
DAV:   5    -0.351288827241E+02   -0.77389E-08   -0.11999E-06 11148   0.125E-02    0.917E-04
DAV:   6    -0.351288827318E+02   -0.77434E-08   -0.26146E-07 14320   0.493E-03    0.630E-04
DAV:   7    -0.351288827270E+02    0.48240E-08   -0.21538E-08  6740   0.342E-03
  42 F= -.35128883E+02 E0= -.35117363E+02  d E =-.406240E-05
 curvature:  -3.95 expect dE=-0.398E-04 dE for cont linesearch -0.118E-06
 trial: gam= 1.09815 g(F)=  0.817E-05 g(S)=  0.190E-05 ort =-0.152E-05 (trialstep = 0.548E+00)
 search vector abs. value=  0.100E-03
 bond charge predicted
       N       E                     dE             d eps       ncg     rms          rms(c)
DAV:   1    -0.351288954312E+02   -0.12699E-04   -0.55854E-03 10076   0.436E-01    0.333E-02
DAV:   2    -0.351288913205E+02    0.41106E-05   -0.17177E-04 12336   0.146E-01    0.174E-02
DAV:   3    -0.351288880050E+02    0.33155E-05   -0.14471E-05 12952   0.404E-02    0.859E-03
DAV:   4    -0.351288867192E+02    0.12858E-05   -0.33728E-06 14624   0.217E-02    0.205E-03
DAV:   5    -0.351288866967E+02    0.22519E-07   -0.10635E-06 10796   0.980E-03    0.944E-04
DAV:   6    -0.351288867090E+02   -0.12360E-07   -0.19903E-07 13088   0.319E-03    0.650E-04
DAV:   7    -0.351288867047E+02    0.42851E-08   -0.26412E-08  8288   0.267E-03
  43 F= -.35128887E+02 E0= -.35117371E+02  d E =-.397775E-05
 trial-energy change:   -0.000004  1 .order   -0.000004   -0.000005   -0.000003
 step:   0.8732(harm=  1.3654)  dis= 0.00101  next Energy=   -35.128888 (dE=-0.486E-05)
 bond charge predicted
       N       E                     dE             d eps       ncg     rms          rms(c)
DAV:   1    -0.351288912102E+02   -0.45012E-05   -0.19601E-03 10080   0.258E-01    0.197E-02
DAV:   2    -0.351288897798E+02    0.14304E-05   -0.60099E-05 12328   0.862E-02    0.103E-02
DAV:   3    -0.351288885742E+02    0.12055E-05   -0.50799E-06 12924   0.241E-02    0.510E-03
DAV:   4    -0.351288881014E+02    0.47286E-06   -0.12070E-06 14560   0.131E-02    0.122E-03
DAV:   5    -0.351288880856E+02    0.15788E-07   -0.37625E-07 10824   0.599E-03    0.562E-04
DAV:   6    -0.351288880902E+02   -0.45820E-08   -0.73113E-08 12680   0.207E-03
  44 F= -.35128888E+02 E0= -.35117374E+02  d E =-.536319E-05
 curvature:  -5.17 expect dE=-0.351E-04 dE for cont linesearch -0.266E-06
 ZBRENT: increasing intervall
 opt :   1.5229  next Energy=   -35.128888 (dE=-0.504E-05)
 bond charge predicted
       N       E                     dE             d eps       ncg     rms          rms(c)
DAV:   1    -0.351289007636E+02   -0.12678E-04   -0.78400E-03 10080   0.517E-01    0.395E-02
DAV:   2    -0.351288950726E+02    0.56911E-05   -0.24092E-04 12364   0.173E-01    0.207E-02
DAV:   3    -0.351288904397E+02    0.46329E-05   -0.20028E-05 12936   0.487E-02    0.102E-02
DAV:   4    -0.351288886687E+02    0.17710E-05   -0.48047E-06 14204   0.266E-02    0.238E-03
DAV:   5    -0.351288886477E+02    0.20958E-07   -0.15171E-06 10788   0.123E-02    0.111E-03
DAV:   6    -0.351288886654E+02   -0.17739E-07   -0.28960E-07 13416   0.436E-03    0.774E-04
DAV:   7    -0.351288886605E+02    0.49627E-08   -0.37863E-08  9408   0.381E-03
  45 F= -.35128889E+02 E0= -.35117380E+02  d E =-.593349E-05
 curvature:   6.24 expect dE= 0.793E-04 dE for cont linesearch  0.251E-06
 trial: gam= 1.13778 g(F)=  0.944E-05 g(S)=  0.328E-05 ort =-0.201E-05 (trialstep = 0.540E+00)
 search vector abs. value=  0.138E-03
 bond charge predicted
       N       E                     dE             d eps       ncg     rms          rms(c)
DAV:   1    -0.351288935383E+02   -0.48728E-05   -0.75359E-03  9980   0.484E-01    0.292E-02
DAV:   2    -0.351288974539E+02   -0.39157E-05   -0.16616E-04 13888   0.110E-01    0.173E-02
DAV:   3    -0.351288934363E+02    0.40176E-05   -0.11136E-05 12832   0.328E-02    0.794E-03
DAV:   4    -0.351288925596E+02    0.87668E-06   -0.46650E-06 13508   0.180E-02    0.221E-03
DAV:   5    -0.351288925214E+02    0.38172E-07   -0.10962E-06 10864   0.110E-02    0.985E-04
DAV:   6    -0.351288925238E+02   -0.23329E-08   -0.21371E-07 13608   0.577E-03    0.696E-04
DAV:   7    -0.351288925118E+02    0.11999E-07   -0.22569E-08  6664   0.324E-03    0.398E-04
DAV:   8    -0.351288925013E+02    0.10503E-07   -0.25031E-08  8312   0.138E-03    0.219E-04
DAV:   9    -0.351288925013E+02   -0.50022E-11   -0.46416E-09  6088   0.100E-03
  46 F= -.35128893E+02 E0= -.35117388E+02  d E =-.384079E-05
 trial-energy change:   -0.000004  1 .order   -0.000004   -0.000006   -0.000002
 step:   0.6807(harm=  0.7452)  dis= 0.00091  next Energy=   -35.128893 (dE=-0.405E-05)
 bond charge predicted
       N       E                     dE             d eps       ncg     rms          rms(c)
DAV:   1    -0.351288928558E+02   -0.35459E-06   -0.51076E-04 10004   0.126E-01    0.758E-03
DAV:   2    -0.351288931535E+02   -0.29769E-06   -0.11247E-05 13952   0.286E-02    0.451E-03
DAV:   3    -0.351288928714E+02    0.28209E-06   -0.72552E-07 12840   0.823E-03    0.205E-03
DAV:   4    -0.351288928177E+02    0.53731E-07   -0.31188E-07 13392   0.465E-03    0.565E-04
DAV:   5    -0.351288928086E+02    0.90931E-08   -0.74138E-08 10712   0.291E-03
  47 F= -.35128893E+02 E0= -.35117390E+02  d E =-.414815E-05
 curvature:  -4.43 expect dE=-0.244E-04 dE for cont linesearch -0.182E-07
 trial: gam= 0.21676 g(F)=  0.466E-05 g(S)=  0.844E-06 ort = 0.753E-06 (trialstep = 0.568E+00)
 search vector abs. value=  0.123E-04
 bond charge predicted
       N       E                     dE             d eps       ncg     rms          rms(c)
DAV:   1    -0.351288946616E+02   -0.18439E-05   -0.74844E-04  9936   0.155E-01    0.837E-03
DAV:   2    -0.351288957766E+02   -0.11150E-05   -0.20928E-05 13904   0.371E-02    0.497E-03
DAV:   3    -0.351288954680E+02    0.30857E-06   -0.10082E-06 12772   0.128E-02    0.248E-03
DAV:   4    -0.351288953733E+02    0.94716E-07   -0.37697E-07 11072   0.851E-03    0.575E-04
DAV:   5    -0.351288953769E+02   -0.35552E-08   -0.13490E-07 12668   0.451E-03    0.321E-04
DAV:   6    -0.351288953796E+02   -0.26721E-08   -0.21546E-08  6416   0.193E-03
  48 F= -.35128895E+02 E0= -.35117392E+02  d E =-.257093E-05
 trial-energy change:   -0.000003  1 .order   -0.000003   -0.000003   -0.000002
 step:   1.3722(harm=  1.3722)  dis= 0.00046  next Energy=   -35.128897 (dE=-0.389E-05)
 bond charge predicted
       N       E                     dE             d eps       ncg     rms          rms(c)
DAV:   1    -0.351288953655E+02    0.11410E-07   -0.14988E-03  9936   0.220E-01    0.119E-02
DAV:   2    -0.351288975992E+02   -0.22337E-05   -0.41872E-05 13920   0.527E-02    0.700E-03
DAV:   3    -0.351288969904E+02    0.60876E-06   -0.20142E-06 12672   0.187E-02    0.353E-03
DAV:   4    -0.351288968085E+02    0.18185E-06   -0.75346E-07 11344   0.129E-02    0.818E-04
DAV:   5    -0.351288968155E+02   -0.69394E-08   -0.26254E-07 12992   0.675E-03    0.458E-04
DAV:   6    -0.351288968203E+02   -0.48212E-08   -0.48694E-08 10288   0.268E-03
  49 F= -.35128897E+02 E0= -.35117393E+02  d E =-.401169E-05
 curvature:  -1.49 expect dE=-0.558E-05 dE for cont linesearch -0.181E-08
 trial: gam= 0.73817 g(F)=  0.287E-05 g(S)=  0.879E-06 ort = 0.122E-06 (trialstep = 0.729E+00)
 search vector abs. value=  0.106E-04
 bond charge predicted
       N       E                     dE             d eps       ncg     rms          rms(c)
DAV:   1    -0.351288983136E+02   -0.14981E-05   -0.11130E-03 10020   0.210E-01    0.159E-02
DAV:   2    -0.351288990491E+02   -0.73551E-06   -0.55046E-05 11632   0.766E-02    0.780E-03
DAV:   3    -0.351288986604E+02    0.38862E-06   -0.52268E-06 14088   0.225E-02    0.455E-03
DAV:   4    -0.351288984342E+02    0.22622E-06   -0.98975E-07 11804   0.133E-02    0.157E-03
DAV:   5    -0.351288984233E+02    0.10893E-07   -0.26562E-07 12028   0.746E-03    0.392E-04
DAV:   6    -0.351288984260E+02   -0.26657E-08   -0.69509E-08 10636   0.321E-03
  50 F= -.35128898E+02 E0= -.35117395E+02  d E =-.160569E-05
 trial-energy change:   -0.000002  1 .order   -0.000001   -0.000003   -0.000000
 step:   0.7377(harm=  0.7412)  dis= 0.00020  next Energy=   -35.128898 (dE=-0.161E-05)
 bond charge predicted
       N       E                     dE             d eps       ncg     rms          rms(c)
DAV:   1    -0.351288984223E+02    0.10791E-08   -0.16911E-07 11540   0.330E-03    0.271E-04
DAV:   2    -0.351288984199E+02    0.23024E-08   -0.99858E-09  6056   0.153E-03
  51 F= -.35128898E+02 E0= -.35117395E+02  d E =-.159964E-05
 curvature:  -0.94 expect dE=-0.272E-05 dE for cont linesearch -0.855E-09
 trial: gam= 0.77027 g(F)=  0.237E-05 g(S)=  0.527E-06 ort = 0.983E-07 (trialstep = 0.731E+00)
 search vector abs. value=  0.935E-05
 bond charge predicted
       N       E                     dE             d eps       ncg     rms          rms(c)
DAV:   1    -0.351288997334E+02   -0.13112E-05   -0.10006E-03  9916   0.180E-01    0.109E-02
DAV:   2    -0.351289007847E+02   -0.10512E-05   -0.25789E-05 12984   0.423E-02    0.619E-03
DAV:   3    -0.351289003044E+02    0.48028E-06   -0.16448E-06 12280   0.171E-02    0.283E-03
DAV:   4    -0.351289002277E+02    0.76635E-07   -0.59850E-07 12008   0.109E-02    0.730E-04
DAV:   5    -0.351289002394E+02   -0.11667E-07   -0.22924E-07 12080   0.513E-03    0.426E-04
DAV:   6    -0.351289002446E+02   -0.52310E-08   -0.32400E-08  7260   0.248E-03
  52 F= -.35128900E+02 E0= -.35117397E+02  d E =-.182469E-05
 trial-energy change:   -0.000002  1 .order   -0.000002   -0.000002   -0.000001
 step:   1.2078(harm=  1.7580)  dis= 0.00028  next Energy=   -35.128901 (dE=-0.227E-05)
 bond charge predicted
       N       E                     dE             d eps       ncg     rms          rms(c)
DAV:   1    -0.351289001104E+02    0.12896E-06   -0.42658E-04  9912   0.118E-01    0.709E-03
DAV:   2    -0.351289005660E+02   -0.45557E-06   -0.11062E-05 12960   0.282E-02    0.404E-03
DAV:   3    -0.351289003708E+02    0.19524E-06   -0.74873E-07 12540   0.122E-02    0.186E-03
DAV:   4    -0.351289003459E+02    0.24883E-07   -0.26334E-07 12160   0.751E-03    0.480E-04
DAV:   5    -0.351289003518E+02   -0.59135E-08   -0.10680E-07 11684   0.339E-03    0.280E-04
DAV:   6    -0.351289003543E+02   -0.25316E-08   -0.13619E-08  6832   0.176E-03
  53 F= -.35128900E+02 E0= -.35117396E+02  d E =-.193440E-05
 curvature:  -1.97 expect dE=-0.327E-05 dE for cont linesearch -0.205E-06
 ZBRENT: increasing intervall
 opt :   2.1618  next Energy=   -35.128901 (dE=-0.216E-05)
 bond charge predicted
       N       E                     dE             d eps       ncg     rms          rms(c)
DAV:   1    -0.351288997825E+02    0.56934E-06   -0.17050E-03  9912   0.235E-01    0.141E-02
DAV:   2    -0.351289016150E+02   -0.18325E-05   -0.44122E-05 13072   0.552E-02    0.806E-03
DAV:   3    -0.351289007955E+02    0.81957E-06   -0.27543E-06 12244   0.222E-02    0.370E-03
DAV:   4    -0.351289006529E+02    0.14260E-06   -0.10105E-06 12024   0.141E-02    0.952E-04
DAV:   5    -0.351289006725E+02   -0.19683E-07   -0.38554E-07 12192   0.666E-03    0.554E-04
DAV:   6    -0.351289006807E+02   -0.81864E-08   -0.57454E-08  9800   0.319E-03
  54 F= -.35128901E+02 E0= -.35117396E+02  d E =-.226077E-05
 curvature:  -2.16 expect dE=-0.106E-04 dE for cont linesearch -0.910E-07
 trial: gam= 0.00000 g(F)=  0.405E-05 g(S)=  0.860E-06 ort =-0.627E-06 (trialstep = 0.102E+01)
 search vector abs. value=  0.491E-05
 bond charge predicted
       N       E                     dE             d eps       ncg     rms          rms(c)
DAV:   1    -0.351289022981E+02   -0.16256E-05   -0.96155E-04 10052   0.209E-01    0.187E-02
DAV:   2    -0.351289023839E+02   -0.85844E-07   -0.73639E-05 12272   0.858E-02    0.828E-03
DAV:   3    -0.351289019225E+02    0.46148E-06   -0.64755E-06 13616   0.237E-02    0.497E-03
DAV:   4    -0.351289016134E+02    0.30910E-06   -0.13990E-06 11896   0.125E-02    0.186E-03
DAV:   5    -0.351289015754E+02    0.37992E-07   -0.29462E-07 13608   0.707E-03    0.528E-04
DAV:   6    -0.351289015718E+02    0.35393E-08   -0.86394E-08 10724   0.380E-03
  55 F= -.35128902E+02 E0= -.35117399E+02  d E =-.891112E-06
 trial-energy change:   -0.000001  1 .order   -0.000001   -0.000005    0.000003
 step:   0.6202(harm=  0.6116)  dis= 0.00011  next Energy=   -35.128902 (dE=-0.153E-05)
 bond charge predicted
       N       E                     dE             d eps       ncg     rms          rms(c)
DAV:   1    -0.351289023937E+02   -0.81829E-06   -0.14620E-04 10012   0.818E-02    0.723E-03
DAV:   2    -0.351289023727E+02    0.21013E-07   -0.11197E-05 12256   0.333E-02    0.323E-03
DAV:   3    -0.351289022554E+02    0.11729E-06   -0.97246E-07 13492   0.839E-03    0.193E-03
DAV:   4    -0.351289021748E+02    0.80589E-07   -0.20405E-07 11732   0.470E-03    0.727E-04
DAV:   5    -0.351289021623E+02    0.12508E-07   -0.36564E-08  9004   0.267E-03    0.200E-04
DAV:   6    -0.351289021652E+02   -0.28958E-08   -0.13900E-08  6272   0.148E-03
  56 F= -.35128902E+02 E0= -.35117399E+02  d E =-.148444E-05
 curvature:  -0.31 expect dE=-0.639E-06 dE for cont linesearch -0.139E-10
 trial: gam= 0.42890 g(F)=  0.160E-05 g(S)=  0.491E-06 ort =-0.150E-07 (trialstep = 0.938E+00)
 search vector abs. value=  0.298E-05
 bond charge predicted
       N       E                     dE             d eps       ncg     rms          rms(c)
DAV:   1    -0.351289026391E+02   -0.47686E-06   -0.54897E-04 10464   0.149E-01    0.113E-02
DAV:   2    -0.351289038309E+02   -0.11918E-05   -0.35881E-05 12528   0.587E-02    0.568E-03
DAV:   3    -0.351289035480E+02    0.28296E-06   -0.25887E-06 13168   0.138E-02    0.311E-03
DAV:   4    -0.351289033161E+02    0.23182E-06   -0.41883E-07 12404   0.539E-03    0.926E-04
DAV:   5    -0.351289032954E+02    0.20749E-07   -0.14496E-07 11700   0.349E-03    0.308E-04
DAV:   6    -0.351289032943E+02    0.11069E-08   -0.25220E-08  7864   0.207E-03
  57 F= -.35128903E+02 E0= -.35117400E+02  d E =-.112912E-05
 trial-energy change:   -0.000001  1 .order   -0.000001   -0.000002    0.000001
 step:   0.7987(harm=  0.6525)  dis= 0.00016  next Energy=   -35.128903 (dE=-0.119E-05)
 bond charge predicted
       N       E                     dE             d eps       ncg     rms          rms(c)
DAV:   1    -0.351289033555E+02   -0.60147E-07   -0.11998E-05 10352   0.222E-02    0.165E-03
DAV:   2    -0.351289033802E+02   -0.24622E-07   -0.79333E-07 12436   0.898E-03    0.851E-04
DAV:   3    -0.351289033877E+02   -0.75283E-08   -0.56389E-08 10268   0.248E-03
  58 F= -.35128903E+02 E0= -.35117401E+02  d E =-.122252E-05
 curvature:  -0.34 expect dE=-0.526E-06 dE for cont linesearch -0.221E-07
 trial: gam= 0.00000 g(F)=  0.132E-05 g(S)=  0.209E-06 ort =-0.438E-06 (trialstep = 0.910E+00)
 search vector abs. value=  0.153E-05
 bond charge predicted
       N       E                     dE             d eps       ncg     rms          rms(c)
DAV:   1    -0.351289031281E+02    0.25201E-06   -0.25651E-04 10156   0.896E-02    0.612E-03
DAV:   2    -0.351289040849E+02   -0.95679E-06   -0.14066E-05 12744   0.306E-02    0.387E-03
DAV:   3    -0.351289039417E+02    0.14319E-06   -0.89809E-07 13132   0.103E-02    0.239E-03
DAV:   4    -0.351289038838E+02    0.57929E-07   -0.37090E-07 12336   0.763E-03    0.771E-04
DAV:   5    -0.351289038740E+02    0.97616E-08   -0.90738E-08 11016   0.430E-03
  59 F= -.35128904E+02 E0= -.35117401E+02  d E =-.486363E-06
 trial-energy change:   -0.000000  1 .order   -0.000000   -0.000001    0.000001
 step:   0.6822(harm=  0.6350)  dis= 0.00008  next Energy=   -35.128904 (dE=-0.560E-06)
 bond charge predicted
       N       E                     dE             d eps       ncg     rms          rms(c)
DAV:   1    -0.351289039251E+02   -0.41343E-07   -0.16073E-05 10080   0.225E-02    0.150E-03
DAV:   2    -0.351289039555E+02   -0.30332E-07   -0.85082E-07 12944   0.782E-03    0.955E-04
DAV:   3    -0.351289039440E+02    0.11443E-07   -0.53596E-08 10364   0.276E-03    0.582E-04
DAV:   4    -0.351289039323E+02    0.11778E-07   -0.20973E-08  6468   0.228E-03    0.184E-04
DAV:   5    -0.351289039329E+02   -0.64256E-09   -0.78110E-09  5632   0.138E-03
  60 F= -.35128904E+02 E0= -.35117401E+02  d E =-.545221E-06
 curvature:  -0.31 expect dE=-0.301E-06 dE for cont linesearch -0.459E-08
 trial: gam= 0.73804 g(F)=  0.839E-06 g(S)=  0.139E-06 ort =-0.151E-06 (trialstep = 0.832E+00)
 search vector abs. value=  0.159E-05
 bond charge predicted
       N       E                     dE             d eps       ncg     rms          rms(c)
DAV:   1    -0.351289044210E+02   -0.48878E-06   -0.21200E-04  9924   0.945E-02    0.689E-03
DAV:   2    -0.351289045406E+02   -0.11955E-06   -0.10936E-05 11920   0.365E-02    0.297E-03
DAV:   3    -0.351289044532E+02    0.87390E-07   -0.93024E-07 12904   0.967E-03    0.162E-03
DAV:   4    -0.351289043879E+02    0.65321E-07   -0.13510E-07 14200   0.471E-03    0.527E-04
DAV:   5    -0.351289043807E+02    0.71859E-08   -0.34967E-08  8736   0.199E-03
  61 F= -.35128904E+02 E0= -.35117400E+02  d E =-.447794E-06
 trial-energy change:   -0.000000  1 .order   -0.000000   -0.000001   -0.000000
 step:   0.8693(harm=  0.8911)  dis= 0.00011  next Energy=   -35.128904 (dE=-0.449E-06)
 bond charge predicted
       N       E                     dE             d eps       ncg     rms          rms(c)
DAV:   1    -0.351289043884E+02   -0.49158E-09   -0.43115E-07 10640   0.448E-03    0.365E-04
DAV:   2    -0.351289043926E+02   -0.42487E-08   -0.22971E-08  7964   0.177E-03
  62 F= -.35128904E+02 E0= -.35117400E+02  d E =-.459720E-06
 curvature:  -0.70 expect dE=-0.668E-06 dE for cont linesearch -0.126E-09
 trial: gam= 0.76937 g(F)=  0.746E-06 g(S)=  0.203E-06 ort = 0.169E-07 (trialstep = 0.696E+00)
 search vector abs. value=  0.192E-05
 bond charge predicted
       N       E                     dE             d eps       ncg     rms          rms(c)
DAV:   1    -0.351289047305E+02   -0.34210E-06   -0.20154E-04 10112   0.826E-02    0.421E-03
DAV:   2    -0.351289050033E+02   -0.27284E-06   -0.59459E-06 11512   0.209E-02    0.194E-03
DAV:   3    -0.351289050008E+02    0.25539E-08   -0.36252E-07 12580   0.581E-03    0.111E-03
DAV:   4    -0.351289050015E+02   -0.72487E-09   -0.65657E-08 10992   0.316E-03
  63 F= -.35128905E+02 E0= -.35117400E+02  d E =-.608869E-06
 trial-energy change:   -0.000001  1 .order   -0.000001   -0.000001   -0.000000
 step:   2.4915(harm=  2.4915)  dis= 0.00040  next Energy=   -35.128906 (dE=-0.120E-05)
 bond charge predicted
       N       E                     dE             d eps       ncg     rms          rms(c)
DAV:   1    -0.351289042127E+02    0.78806E-06   -0.13383E-03 10104   0.213E-01    0.110E-02
DAV:   2    -0.351289060803E+02   -0.18676E-05   -0.39461E-05 11648   0.538E-02    0.501E-03
DAV:   3    -0.351289059724E+02    0.10794E-06   -0.23639E-06 12704   0.152E-02    0.285E-03
DAV:   4    -0.351289059044E+02    0.68012E-07   -0.46389E-07 14144   0.839E-03    0.925E-04
DAV:   5    -0.351289059144E+02   -0.10055E-07   -0.14418E-07 11224   0.463E-03    0.352E-04
DAV:   6    -0.351289059194E+02   -0.49254E-08   -0.24490E-08  6860   0.153E-03
  64 F= -.35128906E+02 E0= -.35117399E+02  d E =-.152675E-05
 curvature:  -2.48 expect dE=-0.196E-05 dE for cont linesearch -0.489E-07
 trial: gam= 0.00000 g(F)=  0.641E-06 g(S)=  0.151E-06 ort = 0.194E-06 (trialstep = 0.106E+01)
 search vector abs. value=  0.792E-06
 bond charge predicted
       N       E                     dE             d eps       ncg     rms          rms(c)
DAV:   1    -0.351289058634E+02    0.51047E-07   -0.17484E-04  9996   0.752E-02    0.576E-03
DAV:   2    -0.351289063528E+02   -0.48944E-06   -0.96236E-06 12596   0.291E-02    0.351E-03
DAV:   3    -0.351289062058E+02    0.14702E-06   -0.81281E-07 12924   0.109E-02    0.209E-03
DAV:   4    -0.351289061446E+02    0.61212E-07   -0.34344E-07 12872   0.760E-03    0.677E-04
DAV:   5    -0.351289061325E+02    0.12079E-07   -0.78447E-08 10708   0.383E-03    0.267E-04
DAV:   6    -0.351289061287E+02    0.38253E-08   -0.21662E-08  7032   0.135E-03
  65 F= -.35128906E+02 E0= -.35117400E+02  d E =-.209327E-06
 trial-energy change:   -0.000000  1 .order   -0.000000   -0.000001    0.000001
 step:   0.7038(harm=  0.6365)  dis= 0.00004  next Energy=   -35.128906 (dE=-0.299E-06)
 bond charge predicted
       N       E                     dE             d eps       ncg     rms          rms(c)
DAV:   1    -0.351289062019E+02   -0.69384E-07   -0.19326E-05  9976   0.249E-02    0.191E-03
DAV:   2    -0.351289062208E+02   -0.18918E-07   -0.10512E-06 12780   0.923E-03    0.116E-03
DAV:   3    -0.351289062116E+02    0.91832E-08   -0.86820E-08 11204   0.336E-03
  66 F= -.35128906E+02 E0= -.35117399E+02  d E =-.292271E-06
 curvature:  -0.31 expect dE=-0.203E-06 dE for cont linesearch -0.174E-07
 trial: gam= 0.00000 g(F)=  0.473E-06 g(S)=  0.182E-06 ort =-0.211E-06 (trialstep = 0.985E+00)
 search vector abs. value=  0.655E-06
 bond charge predicted
       N       E                     dE             d eps       ncg     rms          rms(c)
DAV:   1    -0.351289061587E+02    0.62128E-07   -0.12699E-04 10632   0.692E-02    0.612E-03
DAV:   2    -0.351289062973E+02   -0.13862E-06   -0.86781E-06 12356   0.288E-02    0.346E-03
DAV:   3    -0.351289061259E+02    0.17139E-06   -0.76777E-07 13220   0.102E-02    0.192E-03
DAV:   4    -0.351289060390E+02    0.86895E-07   -0.28453E-07 10940   0.582E-03    0.527E-04
DAV:   5    -0.351289060467E+02   -0.76566E-08   -0.65165E-08 10744   0.328E-03
  67 F= -.35128906E+02 E0= -.35117399E+02  d E =0.164957E-06
 trial-energy change:    0.000000  1 .order    0.000000   -0.000001    0.000001
 step:   0.3404(harm=  0.4659)  dis= 0.00003  next Energy=   -35.128906 (dE=-0.106E-06)
 bond charge predicted
       N       E                     dE             d eps       ncg     rms          rms(c)
DAV:   1    -0.351289062242E+02   -0.18518E-06   -0.54853E-05 10576   0.456E-02    0.391E-03
DAV:   2    -0.351289063541E+02   -0.12986E-06   -0.37430E-06 12232   0.199E-02    0.222E-03
DAV:   3    -0.351289063060E+02    0.48070E-07   -0.32638E-07 13204   0.685E-03    0.124E-03
DAV:   4    -0.351289062974E+02    0.85797E-08   -0.12302E-07 10820   0.383E-03    0.337E-04
DAV:   5    -0.351289062942E+02    0.32046E-08   -0.24869E-08  7360   0.222E-03
  68 F= -.35128906E+02 E0= -.35117399E+02  d E =-.825657E-07
 curvature:  -0.22 expect dE=-0.524E-07 dE for cont linesearch -0.322E-08
 trial: gam= 0.21530 g(F)=  0.197E-06 g(S)=  0.418E-07 ort = 0.980E-07 (trialstep = 0.856E+00)
 search vector abs. value=  0.312E-06
 reached required accuracy - stopping structural energy minimisation
 writing wavefunctions
Tue Jan  4 00:00:48 CST 2022
