Tue Jan  4 01:35:58 CST 2022
 running on   48 total cores
 distrk:  each k-point on   48 cores,    1 groups
 distr:  one band on   24 cores,    2 groups
 using from now: INCAR     
 vasp.5.3.5 31Mar14 (build Jan 11 2016 19:50:55) complex                        
  
 POSCAR found type information on POSCAR  Zn Ga N  O 
 POSCAR found :  4 types and       8 ions
 scaLAPACK will be used

 ----------------------------------------------------------------------------- 
|                                                                             |
|           W    W    AA    RRRRR   N    N  II  N    N   GGGG   !!!           |
|           W    W   A  A   R    R  NN   N  II  NN   N  G    G  !!!           |
|           W    W  A    A  R    R  N N  N  II  N N  N  G       !!!           |
|           W WW W  AAAAAA  RRRRR   N  N N  II  N  N N  G  GGG   !            |
|           WW  WW  A    A  R   R   N   NN  II  N   NN  G    G                |
|           W    W  A    A  R    R  N    N  II  N    N   GGGG   !!!           |
|                                                                             |
|      For optimal performance we recommend to set                            |
|        NCORE= 4 - approx SQRT( number of cores)                             |
|      NCORE specifies how many cores store one orbital (NPAR=cpu/NCORE).     |
|      This setting can  greatly improve the performance of VASP for DFT.     |
|      The default, NPAR=number of cores might be grossly inefficient         |
|      on modern multi-core architectures or massively parallel machines.     |
|      Do your own testing !!!!                                               |
|      Unfortunately you need to use the default for GW and RPA calculations. |
|      (for HF NCORE is supported but not extensively tested yet)             |
|                                                                             |
 ----------------------------------------------------------------------------- 

 LDA part: xc-table for Pade appr. of Perdew
 POSCAR, INCAR and KPOINTS ok, starting setup
 WARNING: small aliasing (wrap around) errors must be expected
 FFT: planning ...
 WAVECAR not read
 entering main loop
       N       E                     dE             d eps       ncg     rms          rms(c)
DAV:   1     0.896257643178E+03    0.89626E+03   -0.42366E+04 10252   0.343E+03
DAV:   2     0.136306578786E+03   -0.75995E+03   -0.72953E+03  9888   0.795E+02
DAV:   3    -0.346682157336E+02   -0.17097E+03   -0.16645E+03 11064   0.270E+02
DAV:   4    -0.488931685137E+02   -0.14225E+02   -0.14058E+02 12112   0.796E+01
DAV:   5    -0.493385354360E+02   -0.44537E+00   -0.44346E+00 12392   0.140E+01    0.173E+01
DAV:   6    -0.411810698742E+02    0.81575E+01   -0.23018E+01 18828   0.810E+01    0.823E+00
DAV:   7    -0.419128558609E+02   -0.73179E+00   -0.91420E+00 10632   0.210E+01    0.557E+00
DAV:   8    -0.418221084362E+02    0.90747E-01   -0.12152E+00 15464   0.971E+00    0.249E+00
DAV:   9    -0.417865463775E+02    0.35562E-01   -0.18976E-01 14116   0.488E+00    0.101E+00
DAV:  10    -0.417767039777E+02    0.98424E-02   -0.67535E-02 13632   0.180E+00    0.376E-01
DAV:  11    -0.417771036137E+02   -0.39964E-03   -0.10921E-02 13832   0.913E-01    0.114E-01
DAV:  12    -0.417773111465E+02   -0.20753E-03   -0.19809E-03 11884   0.550E-01    0.430E-02
DAV:  13    -0.417773496212E+02   -0.38475E-04   -0.31855E-04 11848   0.191E-01    0.465E-02
DAV:  14    -0.417773491202E+02    0.50106E-06   -0.70018E-05 13612   0.134E-01    0.213E-02
DAV:  15    -0.417773507251E+02   -0.16050E-05   -0.29197E-05 12872   0.711E-02    0.120E-02
DAV:  16    -0.417773514980E+02   -0.77289E-06   -0.48915E-06 13296   0.318E-02    0.450E-03
DAV:  17    -0.417773515753E+02   -0.77290E-07   -0.88390E-07 13288   0.120E-02    0.195E-03
DAV:  18    -0.417773514575E+02    0.11782E-06   -0.32988E-07 12480   0.619E-03    0.116E-03
DAV:  19    -0.417773514940E+02   -0.36528E-07   -0.47955E-08 10440   0.405E-03    0.346E-04
DAV:  20    -0.417773514847E+02    0.92814E-08   -0.99497E-09  6344   0.169E-03
   1 F= -.41777351E+02 E0= -.41777319E+02  d E =-.417774E+02
 curvature:   0.00 expect dE= 0.000E+00 dE for cont linesearch  0.000E+00
 trial: gam= 0.00000 g(F)=  0.218E-04 g(S)=  0.443E-05 ort = 0.000E+00 (trialstep = 0.100E+01)
 search vector abs. value=  0.262E-04
 bond charge predicted
       N       E                     dE             d eps       ncg     rms          rms(c)
DAV:   1    -0.417773710787E+02   -0.19585E-04   -0.49163E-03 11176   0.489E-01    0.414E-02
DAV:   2    -0.417773671243E+02    0.39544E-05   -0.32589E-04 11420   0.224E-01    0.186E-02
DAV:   3    -0.417773647712E+02    0.23531E-05   -0.25252E-05 12672   0.631E-02    0.923E-03
DAV:   4    -0.417773634641E+02    0.13071E-05   -0.45311E-06 13808   0.323E-02    0.258E-03
DAV:   5    -0.417773635722E+02   -0.10814E-06   -0.17601E-06 10864   0.117E-02    0.869E-04
DAV:   6    -0.417773635613E+02    0.10883E-07   -0.14669E-07 11812   0.449E-03    0.674E-04
DAV:   7    -0.417773635388E+02    0.22522E-07   -0.12718E-08  6152   0.331E-03    0.392E-04
DAV:   8    -0.417773635090E+02    0.29835E-07   -0.10019E-08  5876   0.161E-03    0.124E-04
DAV:   9    -0.417773635065E+02    0.24543E-08   -0.41255E-09  5676   0.101E-03
   2 F= -.41777364E+02 E0= -.41777331E+02  d E =-.120218E-04
 trial-energy change:   -0.000012  1 .order   -0.000012   -0.000026    0.000002
 step:   0.9385(harm=  0.9422)  dis= 0.00049  next Energy=   -41.777364 (dE=-0.121E-04)
 bond charge predicted
       N       E                     dE             d eps       ncg     rms          rms(c)
DAV:   1    -0.417773636131E+02   -0.10414E-06   -0.18583E-05 11156   0.302E-02    0.255E-03
DAV:   2    -0.417773636084E+02    0.46866E-08   -0.12409E-06 11448   0.138E-02    0.115E-03
DAV:   3    -0.417773635752E+02    0.33260E-07   -0.94352E-08 12228   0.382E-03    0.573E-04
DAV:   4    -0.417773635576E+02    0.17618E-07   -0.13198E-08  6352   0.192E-03    0.169E-04
DAV:   5    -0.417773635530E+02    0.45620E-08   -0.93136E-09  5520   0.928E-04
   3 F= -.41777364E+02 E0= -.41777331E+02  d E =-.120683E-04
 curvature:  -0.47 expect dE=-0.161E-05 dE for cont linesearch -0.113E-09
 trial: gam= 0.12790 g(F)=  0.177E-05 g(S)=  0.167E-05 ort = 0.796E-07 (trialstep = 0.988E+00)
 search vector abs. value=  0.389E-05
 bond charge predicted
       N       E                     dE             d eps       ncg     rms          rms(c)
DAV:   1    -0.417773692310E+02   -0.56734E-05   -0.62221E-04 10396   0.178E-01    0.184E-02
DAV:   2    -0.417773671531E+02    0.20779E-05   -0.42173E-05 11436   0.922E-02    0.997E-03
DAV:   3    -0.417773659305E+02    0.12226E-05   -0.33296E-06 13628   0.254E-02    0.461E-03
DAV:   4    -0.417773654306E+02    0.49984E-06   -0.75716E-07 13808   0.121E-02    0.821E-04
DAV:   5    -0.417773654347E+02   -0.40463E-08   -0.28249E-07 10572   0.416E-03    0.442E-04
DAV:   6    -0.417773654451E+02   -0.10427E-07   -0.74878E-09  6148   0.107E-03    0.221E-04
DAV:   7    -0.417773654530E+02   -0.79135E-08   -0.34501E-09  5648   0.130E-03
   4 F= -.41777365E+02 E0= -.41777333E+02  d E =-.190003E-05
 trial-energy change:   -0.000002  1 .order   -0.000002   -0.000003   -0.000001
 step:   1.3212(harm=  1.2102)  dis= 0.00022  next Energy=   -41.777366 (dE=-0.200E-05)
 bond charge predicted
       N       E                     dE             d eps       ncg     rms          rms(c)
DAV:   1    -0.417773659955E+02   -0.55036E-06   -0.71058E-05 10404   0.602E-02    0.623E-03
DAV:   2    -0.417773657682E+02    0.22729E-06   -0.48066E-06 11432   0.311E-02    0.336E-03
DAV:   3    -0.417773655792E+02    0.18903E-06   -0.38059E-07 13700   0.858E-03    0.155E-03
DAV:   4    -0.417773654929E+02    0.86284E-07   -0.86306E-08 12908   0.405E-03    0.280E-04
DAV:   5    -0.417773654893E+02    0.35766E-08   -0.32937E-08  8848   0.143E-03
   5 F= -.41777365E+02 E0= -.41777333E+02  d E =-.193630E-05
 curvature:  -0.51 expect dE=-0.128E-05 dE for cont linesearch -0.670E-08
 trial: gam= 0.79061 g(F)=  0.172E-05 g(S)=  0.787E-06 ort =-0.225E-06 (trialstep = 0.896E+00)
 search vector abs. value=  0.458E-05
 bond charge predicted
       N       E                     dE             d eps       ncg     rms          rms(c)
DAV:   1    -0.417773688143E+02   -0.33214E-05   -0.56927E-04 10364   0.141E-01    0.138E-02
DAV:   2    -0.417773678792E+02    0.93507E-06   -0.14602E-05 12012   0.442E-02    0.812E-03
DAV:   3    -0.417773670580E+02    0.82121E-06   -0.14423E-06 14236   0.171E-02    0.255E-03
DAV:   4    -0.417773669951E+02    0.62878E-07   -0.42092E-07 11600   0.815E-03    0.439E-04
DAV:   5    -0.417773669967E+02   -0.15548E-08   -0.98855E-08 11188   0.268E-03
   6 F= -.41777367E+02 E0= -.41777334E+02  d E =-.150738E-05
 trial-energy change:   -0.000002  1 .order   -0.000001   -0.000002   -0.000001
 step:   1.5789(harm=  1.5789)  dis= 0.00026  next Energy=   -41.777367 (dE=-0.184E-05)
 bond charge predicted
       N       E                     dE             d eps       ncg     rms          rms(c)
DAV:   1    -0.417773684183E+02   -0.14232E-05   -0.33160E-04 10360   0.108E-01    0.106E-02
DAV:   2    -0.417773678607E+02    0.55758E-06   -0.85356E-06 12028   0.339E-02    0.619E-03
DAV:   3    -0.417773674003E+02    0.46038E-06   -0.85060E-07 14328   0.131E-02    0.197E-03
DAV:   4    -0.417773673618E+02    0.38591E-07   -0.24288E-07 11576   0.614E-03    0.336E-04
DAV:   5    -0.417773673611E+02    0.63574E-09   -0.58208E-08 10344   0.201E-03
   7 F= -.41777367E+02 E0= -.41777335E+02  d E =-.187183E-05
 curvature:  -1.55 expect dE=-0.929E-06 dE for cont linesearch -0.540E-09
 trial: gam= 0.06137 g(F)=  0.513E-06 g(S)=  0.842E-07 ort = 0.399E-07 (trialstep = 0.103E+01)
 search vector abs. value=  0.620E-06
 bond charge predicted
       N       E                     dE             d eps       ncg     rms          rms(c)
DAV:   1    -0.417773679301E+02   -0.56836E-06   -0.12555E-04 10416   0.828E-02    0.716E-03
DAV:   2    -0.417773676808E+02    0.24929E-06   -0.96007E-06 12992   0.411E-02    0.383E-03
DAV:   3    -0.417773676926E+02   -0.11777E-07   -0.65453E-07 13968   0.114E-02    0.177E-03
DAV:   4    -0.417773677145E+02   -0.21941E-07   -0.14921E-07 15620   0.484E-03    0.561E-04
DAV:   5    -0.417773677332E+02   -0.18660E-07   -0.51643E-08 10372   0.168E-03    0.233E-04
DAV:   6    -0.417773677284E+02    0.47985E-08   -0.12101E-09  5836   0.626E-04
   8 F= -.41777368E+02 E0= -.41777335E+02  d E =-.367284E-06
 trial-energy change:   -0.000000  1 .order   -0.000000   -0.000001    0.000000
 step:   0.9774(harm=  0.9368)  dis= 0.00009  next Energy=   -41.777368 (dE=-0.369E-06)
 bond charge predicted
       N       E                     dE             d eps       ncg     rms          rms(c)
DAV:   1    -0.417773677314E+02    0.18276E-08   -0.33452E-07 10140   0.431E-03    0.379E-04
DAV:   2    -0.417773677297E+02    0.16366E-08   -0.25257E-08  7744   0.222E-03
   9 F= -.41777368E+02 E0= -.41777335E+02  d E =-.368618E-06
 curvature:  -0.40 expect dE=-0.289E-07 dE for cont linesearch -0.336E-08
 trial: gam= 0.01425 g(F)=  0.518E-07 g(S)=  0.210E-07 ort = 0.726E-07 (trialstep = 0.102E+01)
 search vector abs. value=  0.752E-07
 reached required accuracy - stopping structural energy minimisation
 writing wavefunctions
Tue Jan  4 01:38:05 CST 2022
