Thu Jan  6 03:20:55 CST 2022
 running on   48 total cores
 distrk:  each k-point on   48 cores,    1 groups
 distr:  one band on   24 cores,    2 groups
 using from now: INCAR     
 vasp.5.3.5 31Mar14 (build Jan 11 2016 19:50:55) complex                        
  
 POSCAR found type information on POSCAR  Zn Ga N  O 
 POSCAR found :  4 types and       8 ions
 scaLAPACK will be used

 ----------------------------------------------------------------------------- 
|                                                                             |
|           W    W    AA    RRRRR   N    N  II  N    N   GGGG   !!!           |
|           W    W   A  A   R    R  NN   N  II  NN   N  G    G  !!!           |
|           W    W  A    A  R    R  N N  N  II  N N  N  G       !!!           |
|           W WW W  AAAAAA  RRRRR   N  N N  II  N  N N  G  GGG   !            |
|           WW  WW  A    A  R   R   N   NN  II  N   NN  G    G                |
|           W    W  A    A  R    R  N    N  II  N    N   GGGG   !!!           |
|                                                                             |
|      For optimal performance we recommend to set                            |
|        NCORE= 4 - approx SQRT( number of cores)                             |
|      NCORE specifies how many cores store one orbital (NPAR=cpu/NCORE).     |
|      This setting can  greatly improve the performance of VASP for DFT.     |
|      The default, NPAR=number of cores might be grossly inefficient         |
|      on modern multi-core architectures or massively parallel machines.     |
|      Do your own testing !!!!                                               |
|      Unfortunately you need to use the default for GW and RPA calculations. |
|      (for HF NCORE is supported but not extensively tested yet)             |
|                                                                             |
 ----------------------------------------------------------------------------- 

 LDA part: xc-table for Pade appr. of Perdew
 POSCAR, INCAR and KPOINTS ok, starting setup
 WARNING: small aliasing (wrap around) errors must be expected
 FFT: planning ...
 WAVECAR not read
 entering main loop
       N       E                     dE             d eps       ncg     rms          rms(c)
DAV:   1     0.892241154004E+03    0.89224E+03   -0.41369E+04 10156   0.329E+03
DAV:   2     0.143698891596E+03   -0.74854E+03   -0.72048E+03  9896   0.776E+02
DAV:   3    -0.248805182174E+02   -0.16858E+03   -0.16356E+03 11440   0.261E+02
DAV:   4    -0.395876972881E+02   -0.14707E+02   -0.14531E+02 12140   0.773E+01
DAV:   5    -0.400523527660E+02   -0.46466E+00   -0.46226E+00 12876   0.135E+01    0.147E+01
DAV:   6    -0.348912375890E+02    0.51611E+01   -0.16937E+01 18860   0.710E+01    0.765E+00
DAV:   7    -0.351301647724E+02   -0.23893E+00   -0.56607E+00 10724   0.170E+01    0.448E+00
DAV:   8    -0.350729543543E+02    0.57210E-01   -0.87254E-01 14580   0.812E+00    0.204E+00
DAV:   9    -0.350487496401E+02    0.24205E-01   -0.20565E-01 13640   0.586E+00    0.415E-01
DAV:  10    -0.350500376769E+02   -0.12880E-02   -0.34422E-02 11116   0.220E+00    0.239E-01
DAV:  11    -0.350506495764E+02   -0.61190E-03   -0.76423E-03 13040   0.103E+00    0.141E-01
DAV:  12    -0.350507082320E+02   -0.58656E-04   -0.17646E-03 13424   0.613E-01    0.649E-02
DAV:  13    -0.350507863255E+02   -0.78093E-04   -0.57460E-04 13160   0.305E-01    0.310E-02
DAV:  14    -0.350507961426E+02   -0.98172E-05   -0.12115E-04 13336   0.137E-01    0.128E-02
DAV:  15    -0.350508035873E+02   -0.74447E-05   -0.39753E-05 12176   0.670E-02    0.783E-03
DAV:  16    -0.350508054465E+02   -0.18591E-05   -0.80422E-06 11800   0.564E-02    0.347E-03
DAV:  17    -0.350508054431E+02    0.33156E-08   -0.20152E-06 12308   0.228E-02    0.131E-03
DAV:  18    -0.350508055340E+02   -0.90847E-07   -0.82527E-07 12120   0.758E-03    0.104E-03
DAV:  19    -0.350508055314E+02    0.26375E-08   -0.95431E-08 11452   0.434E-03
   1 F= -.35050806E+02 E0= -.35049899E+02  d E =-.350508E+02
 curvature:   0.00 expect dE= 0.000E+00 dE for cont linesearch  0.000E+00
 trial: gam= 0.00000 g(F)=  0.105E-03 g(S)=  0.219E-04 ort = 0.000E+00 (trialstep = 0.100E+01)
 search vector abs. value=  0.127E-03
 bond charge predicted
       N       E                     dE             d eps       ncg     rms          rms(c)
DAV:   1    -0.350509318597E+02   -0.12633E-03   -0.25570E-02  9872   0.108E+00    0.111E-01
DAV:   2    -0.350508847583E+02    0.47101E-04   -0.22198E-03 12376   0.505E-01    0.501E-02
DAV:   3    -0.350508670117E+02    0.17747E-04   -0.16086E-04 12880   0.141E-01    0.244E-02
DAV:   4    -0.350508571200E+02    0.98917E-05   -0.26785E-05 13452   0.795E-02    0.936E-03
DAV:   5    -0.350508561845E+02    0.93546E-06   -0.94225E-06 11340   0.294E-02    0.216E-03
DAV:   6    -0.350508561362E+02    0.48324E-07   -0.11002E-06 12332   0.155E-02    0.124E-03
DAV:   7    -0.350508561186E+02    0.17584E-07   -0.16015E-07 11468   0.907E-03    0.686E-04
DAV:   8    -0.350508561118E+02    0.68076E-08   -0.46257E-08 10604   0.282E-03
   2 F= -.35050856E+02 E0= -.35049941E+02  d E =-.505805E-04
 trial-energy change:   -0.000051  1 .order   -0.000051   -0.000127    0.000025
 step:   0.8340(harm=  0.8362)  dis= 0.00088  next Energy=   -35.050858 (dE=-0.526E-04)
 bond charge predicted
       N       E                     dE             d eps       ncg     rms          rms(c)
DAV:   1    -0.350508599123E+02   -0.37937E-05   -0.70382E-04  9856   0.179E-01    0.183E-02
DAV:   2    -0.350508585410E+02    0.13713E-05   -0.61239E-05 12392   0.837E-02    0.833E-03
DAV:   3    -0.350508582871E+02    0.25386E-06   -0.44184E-06 12880   0.232E-02    0.405E-03
DAV:   4    -0.350508581592E+02    0.12789E-06   -0.73561E-07 13544   0.126E-02    0.155E-03
DAV:   5    -0.350508582203E+02   -0.61073E-07   -0.25304E-07 11336   0.463E-03    0.354E-04
DAV:   6    -0.350508582327E+02   -0.12411E-07   -0.24438E-08  8168   0.238E-03    0.202E-04
DAV:   7    -0.350508582356E+02   -0.29181E-08   -0.50851E-09  5976   0.153E-03
   3 F= -.35050858E+02 E0= -.35049944E+02  d E =-.527043E-04
 curvature:  -0.42 expect dE=-0.149E-04 dE for cont linesearch -0.583E-08
 trial: gam= 0.27030 g(F)=  0.189E-04 g(S)=  0.167E-04 ort = 0.133E-05 (trialstep = 0.967E+00)
 search vector abs. value=  0.456E-04
 bond charge predicted
       N       E                     dE             d eps       ncg     rms          rms(c)
DAV:   1    -0.350510644211E+02   -0.20619E-03   -0.72174E-03 12392   0.878E-01    0.106E-01
DAV:   2    -0.350509109815E+02    0.15344E-03   -0.11338E-03 12084   0.484E-01    0.429E-02
DAV:   3    -0.350508869324E+02    0.24049E-04   -0.92275E-05 14932   0.117E-01    0.204E-02
DAV:   4    -0.350508774978E+02    0.94346E-05   -0.15227E-05 14668   0.678E-02    0.557E-03
DAV:   5    -0.350508768985E+02    0.59926E-06   -0.50182E-06 11456   0.323E-02    0.161E-03
DAV:   6    -0.350508769380E+02   -0.39423E-07   -0.97539E-07 11028   0.128E-02    0.116E-03
DAV:   7    -0.350508769639E+02   -0.25923E-07   -0.10483E-07 11048   0.622E-03    0.694E-04
DAV:   8    -0.350508769999E+02   -0.35976E-07   -0.25293E-08  7588   0.213E-03    0.259E-04
DAV:   9    -0.350508770224E+02   -0.22520E-07   -0.98191E-09  5836   0.125E-03    0.951E-05
DAV:  10    -0.350508770250E+02   -0.26353E-08   -0.26693E-09  5528   0.799E-04
   4 F= -.35050877E+02 E0= -.35049969E+02  d E =-.187894E-04
 trial-energy change:   -0.000019  1 .order   -0.000019   -0.000035   -0.000003
 step:   1.0710(harm=  1.0662)  dis= 0.00042  next Energy=   -35.050877 (dE=-0.190E-04)
 bond charge predicted
       N       E                     dE             d eps       ncg     rms          rms(c)
DAV:   1    -0.350508794977E+02   -0.24754E-05   -0.83833E-05 12400   0.946E-02    0.114E-02
DAV:   2    -0.350508777307E+02    0.17671E-05   -0.13147E-05 12108   0.521E-02    0.462E-03
DAV:   3    -0.350508773685E+02    0.36219E-06   -0.10709E-06 14960   0.127E-02    0.219E-03
DAV:   4    -0.350508772058E+02    0.16271E-06   -0.17778E-07 14596   0.739E-03    0.600E-04
DAV:   5    -0.350508771789E+02    0.26848E-07   -0.58276E-08 10260   0.352E-03    0.174E-04
DAV:   6    -0.350508771782E+02    0.77353E-09   -0.10755E-08  5588   0.141E-03
   5 F= -.35050877E+02 E0= -.35049969E+02  d E =-.189425E-04
 curvature:  -0.67 expect dE=-0.117E-04 dE for cont linesearch -0.120E-08
 trial: gam= 0.49294 g(F)=  0.970E-05 g(S)=  0.760E-05 ort =-0.285E-06 (trialstep = 0.988E+00)
 search vector abs. value=  0.281E-04
 bond charge predicted
       N       E                     dE             d eps       ncg     rms          rms(c)
DAV:   1    -0.350508907576E+02   -0.13579E-04   -0.50672E-03  9944   0.414E-01    0.306E-02
DAV:   2    -0.350508934059E+02   -0.26484E-05   -0.17805E-04 12016   0.134E-01    0.173E-02
DAV:   3    -0.350508899600E+02    0.34460E-05   -0.15446E-05 11836   0.529E-02    0.800E-03
DAV:   4    -0.350508890657E+02    0.89427E-06   -0.42971E-06 12544   0.378E-02    0.153E-03
DAV:   5    -0.350508891485E+02   -0.82804E-07   -0.12937E-06 10680   0.175E-02    0.988E-04
DAV:   6    -0.350508891569E+02   -0.83728E-08   -0.27474E-07 12332   0.730E-03    0.595E-04
DAV:   7    -0.350508891483E+02    0.85402E-08   -0.39684E-08  8696   0.458E-03
   6 F= -.35050889E+02 E0= -.35049988E+02  d E =-.119702E-04
 trial-energy change:   -0.000012  1 .order   -0.000012   -0.000017   -0.000006
 step:   1.4540(harm=  1.5789)  dis= 0.00057  next Energy=   -35.050891 (dE=-0.135E-04)
 bond charge predicted
       N       E                     dE             d eps       ncg     rms          rms(c)
DAV:   1    -0.350508915401E+02   -0.23832E-05   -0.11318E-03  9952   0.196E-01    0.145E-02
DAV:   2    -0.350508921213E+02   -0.58124E-06   -0.39931E-05 12008   0.632E-02    0.818E-03
DAV:   3    -0.350508914129E+02    0.70838E-06   -0.35045E-06 11824   0.250E-02    0.379E-03
DAV:   4    -0.350508912193E+02    0.19362E-06   -0.96567E-07 12560   0.180E-02    0.729E-04
DAV:   5    -0.350508912370E+02   -0.17651E-07   -0.29227E-07 10688   0.826E-03    0.469E-04
DAV:   6    -0.350508912358E+02    0.11364E-08   -0.60863E-08  9488   0.346E-03
   7 F= -.35050891E+02 E0= -.35049994E+02  d E =-.140577E-04
 curvature:  -1.23 expect dE=-0.866E-05 dE for cont linesearch -0.109E-06
 ZBRENT: extrapolating
 opt :   1.6051  next Energy=   -35.050891 (dE=-0.142E-04)
 bond charge predicted
       N       E                     dE             d eps       ncg     rms          rms(c)
DAV:   1    -0.350508914214E+02   -0.18442E-06   -0.11889E-04  9952   0.636E-02    0.471E-03
DAV:   2    -0.350508914848E+02   -0.63443E-07   -0.42075E-06 12048   0.211E-02    0.266E-03
DAV:   3    -0.350508914323E+02    0.52516E-07   -0.38167E-07 11572   0.970E-03    0.124E-03
DAV:   4    -0.350508914165E+02    0.15840E-07   -0.11303E-07 11936   0.680E-03    0.243E-04
DAV:   5    -0.350508914180E+02   -0.15716E-08   -0.37770E-08  8560   0.295E-03
   8 F= -.35050891E+02 E0= -.35049995E+02  d E =-.142399E-04
 curvature:  -1.35 expect dE=-0.112E-04 dE for cont linesearch -0.210E-09
 trial: gam= 0.46132 g(F)=  0.687E-05 g(S)=  0.140E-05 ort = 0.661E-07 (trialstep = 0.111E+01)
 search vector abs. value=  0.143E-04
 bond charge predicted
       N       E                     dE             d eps       ncg     rms          rms(c)
DAV:   1    -0.350508951718E+02   -0.37553E-05   -0.35403E-03 10008   0.335E-01    0.195E-02
DAV:   2    -0.350508998490E+02   -0.46772E-05   -0.10011E-04 12524   0.905E-02    0.111E-02
DAV:   3    -0.350508983063E+02    0.15428E-05   -0.69488E-06 12360   0.451E-02    0.500E-03
DAV:   4    -0.350508979582E+02    0.34808E-06   -0.19992E-06 13324   0.340E-02    0.100E-03
DAV:   5    -0.350508980272E+02   -0.68997E-07   -0.72538E-07 10832   0.115E-02    0.642E-04
DAV:   6    -0.350508980383E+02   -0.11104E-07   -0.13269E-07 11324   0.454E-03    0.412E-04
DAV:   7    -0.350508980364E+02    0.19095E-08   -0.14409E-08  6452   0.296E-03
   9 F= -.35050898E+02 E0= -.35050005E+02  d E =-.661833E-05
 trial-energy change:   -0.000007  1 .order   -0.000006   -0.000009   -0.000004
 step:   1.6781(harm=  1.8405)  dis= 0.00077  next Energy=   -35.050899 (dE=-0.757E-05)
 bond charge predicted
       N       E                     dE             d eps       ncg     rms          rms(c)
DAV:   1    -0.350508985235E+02   -0.48521E-06   -0.92284E-04 10008   0.171E-01    0.994E-03
DAV:   2    -0.350508997246E+02   -0.12011E-05   -0.26080E-05 12476   0.466E-02    0.569E-03
DAV:   3    -0.350508993489E+02    0.37565E-06   -0.18773E-06 12356   0.235E-02    0.257E-03
DAV:   4    -0.350508992658E+02    0.83101E-07   -0.53418E-07 13368   0.178E-02    0.519E-04
DAV:   5    -0.350508992881E+02   -0.22222E-07   -0.19573E-07 10820   0.597E-03    0.331E-04
DAV:   6    -0.350508992916E+02   -0.35584E-08   -0.34126E-08  8108   0.231E-03
  10 F= -.35050899E+02 E0= -.35050009E+02  d E =-.787356E-05
 curvature:  -1.51 expect dE=-0.784E-05 dE for cont linesearch -0.634E-07
 trial: gam= 0.55902 g(F)=  0.409E-05 g(S)=  0.111E-05 ort = 0.776E-06 (trialstep = 0.122E+01)
 search vector abs. value=  0.105E-04
 bond charge predicted
       N       E                     dE             d eps       ncg     rms          rms(c)
DAV:   1    -0.350508990258E+02    0.26228E-06   -0.33251E-03  9932   0.329E-01    0.195E-02
DAV:   2    -0.350509039623E+02   -0.49365E-05   -0.10547E-04 11560   0.904E-02    0.102E-02
DAV:   3    -0.350509032008E+02    0.76150E-06   -0.76440E-06 12756   0.296E-02    0.549E-03
DAV:   4    -0.350509027998E+02    0.40095E-06   -0.14701E-06 12428   0.205E-02    0.111E-03
DAV:   5    -0.350509028574E+02   -0.57599E-07   -0.55341E-07 10640   0.898E-03    0.617E-04
DAV:   6    -0.350509028682E+02   -0.10735E-07   -0.82645E-08 11480   0.433E-03    0.364E-04
DAV:   7    -0.350509028697E+02   -0.14943E-08   -0.11176E-08  5980   0.289E-03
  11 F= -.35050903E+02 E0= -.35050017E+02  d E =-.357806E-05
 trial-energy change:   -0.000004  1 .order   -0.000003   -0.000007    0.000000
 step:   1.2097(harm=  1.2074)  dis= 0.00035  next Energy=   -35.050903 (dE=-0.358E-05)
 bond charge predicted
       N       E                     dE             d eps       ncg     rms          rms(c)
DAV:   1    -0.350509028730E+02   -0.48503E-08   -0.46708E-07 10084   0.401E-03    0.243E-04
DAV:   2    -0.350509028735E+02   -0.51159E-09   -0.13787E-08  6424   0.140E-03
  12 F= -.35050903E+02 E0= -.35050016E+02  d E =-.358193E-05
 curvature:  -1.11 expect dE=-0.182E-05 dE for cont linesearch -0.327E-08
 trial: gam= 0.41520 g(F)=  0.160E-05 g(S)=  0.382E-07 ort = 0.176E-06 (trialstep = 0.122E+01)
 search vector abs. value=  0.360E-05
 bond charge predicted
       N       E                     dE             d eps       ncg     rms          rms(c)
DAV:   1    -0.350509033244E+02   -0.45140E-06   -0.11023E-03  9884   0.192E-01    0.105E-02
DAV:   2    -0.350509046568E+02   -0.13324E-05   -0.31475E-05 11108   0.506E-02    0.559E-03
DAV:   3    -0.350509044816E+02    0.17526E-06   -0.23097E-06 12400   0.159E-02    0.304E-03
DAV:   4    -0.350509043702E+02    0.11134E-06   -0.48814E-07 12904   0.106E-02    0.781E-04
DAV:   5    -0.350509043895E+02   -0.19297E-07   -0.17942E-07 10900   0.486E-03    0.362E-04
DAV:   6    -0.350509043916E+02   -0.21355E-08   -0.30160E-08  8556   0.223E-03
  13 F= -.35050904E+02 E0= -.35050019E+02  d E =-.151810E-05
 trial-energy change:   -0.000002  1 .order   -0.000002   -0.000002   -0.000001
 step:   2.3465(harm=  2.3465)  dis= 0.00033  next Energy=   -35.050905 (dE=-0.201E-05)
 bond charge predicted
       N       E                     dE             d eps       ncg     rms          rms(c)
DAV:   1    -0.350509039872E+02    0.40231E-06   -0.93546E-04  9884   0.177E-01    0.975E-03
DAV:   2    -0.350509051090E+02   -0.11218E-05   -0.26680E-05 11128   0.469E-02    0.518E-03
DAV:   3    -0.350509049631E+02    0.14595E-06   -0.19649E-06 12408   0.154E-02    0.281E-03
DAV:   4    -0.350509048736E+02    0.89472E-07   -0.43368E-07 13436   0.112E-02    0.710E-04
DAV:   5    -0.350509048897E+02   -0.16119E-07   -0.15025E-07 10832   0.505E-03    0.326E-04
DAV:   6    -0.350509048926E+02   -0.28494E-08   -0.28938E-08  7616   0.206E-03
  14 F= -.35050905E+02 E0= -.35050021E+02  d E =-.201903E-05
 curvature:  -2.47 expect dE=-0.267E-05 dE for cont linesearch -0.175E-08
 trial: gam= 0.55129 g(F)=  0.607E-06 g(S)=  0.473E-06 ort = 0.505E-07 (trialstep = 0.145E+01)
 search vector abs. value=  0.223E-05
 bond charge predicted
       N       E                     dE             d eps       ncg     rms          rms(c)
DAV:   1    -0.350509065186E+02   -0.16289E-05   -0.83829E-04  9864   0.175E-01    0.137E-02
DAV:   2    -0.350509067440E+02   -0.22544E-06   -0.31962E-05 11828   0.664E-02    0.773E-03
DAV:   3    -0.350509060446E+02    0.69944E-06   -0.34716E-06 11876   0.252E-02    0.373E-03
DAV:   4    -0.350509058026E+02    0.24203E-06   -0.76771E-07 12336   0.177E-02    0.835E-04
DAV:   5    -0.350509058162E+02   -0.13644E-07   -0.26232E-07 11156   0.806E-03    0.410E-04
DAV:   6    -0.350509058242E+02   -0.79817E-08   -0.62130E-08  9876   0.312E-03
  15 F= -.35050906E+02 E0= -.35050023E+02  d E =-.931619E-06
 trial-energy change:   -0.000001  1 .order   -0.000001   -0.000002   -0.000000
 step:   1.5563(harm=  1.5855)  dis= 0.00017  next Energy=   -35.050906 (dE=-0.937E-06)
 bond charge predicted
       N       E                     dE             d eps       ncg     rms          rms(c)
DAV:   1    -0.350509058485E+02   -0.32301E-07   -0.48622E-06  9872   0.137E-02    0.107E-03
DAV:   2    -0.350509058568E+02   -0.82955E-08   -0.19692E-07 11944   0.566E-03    0.601E-04
DAV:   3    -0.350509058474E+02    0.94178E-08   -0.18674E-08  6724   0.277E-03
  16 F= -.35050906E+02 E0= -.35050024E+02  d E =-.954815E-06
 curvature:  -1.53 expect dE=-0.699E-06 dE for cont linesearch -0.127E-07
 trial: gam= 0.32516 g(F)=  0.336E-06 g(S)=  0.122E-06 ort = 0.136E-06 (trialstep = 0.147E+01)
 search vector abs. value=  0.782E-06
 bond charge predicted
       N       E                     dE             d eps       ncg     rms          rms(c)
DAV:   1    -0.350509066958E+02   -0.83902E-06   -0.25808E-04  9864   0.100E-01    0.948E-03
DAV:   2    -0.350509063588E+02    0.33705E-06   -0.12717E-05 12056   0.437E-02    0.514E-03
DAV:   3    -0.350509060538E+02    0.30497E-06   -0.15172E-06 12512   0.197E-02    0.241E-03
DAV:   4    -0.350509059652E+02    0.88609E-07   -0.36417E-07 13240   0.128E-02    0.540E-04
DAV:   5    -0.350509059693E+02   -0.41182E-08   -0.12524E-07 10624   0.531E-03    0.299E-04
DAV:   6    -0.350509059657E+02    0.36066E-08   -0.26141E-08  7440   0.242E-03
  17 F= -.35050906E+02 E0= -.35050023E+02  d E =-.118313E-06
 trial-energy change:   -0.000000  1 .order   -0.000000   -0.000001    0.000000
 step:   0.8451(harm=  1.0021)  dis= 0.00008  next Energy=   -35.050906 (dE=-0.197E-06)
 bond charge predicted
       N       E                     dE             d eps       ncg     rms          rms(c)
DAV:   1    -0.350509061653E+02   -0.19597E-06   -0.46452E-05  9864   0.424E-02    0.402E-03
DAV:   2    -0.350509061162E+02    0.49068E-07   -0.22942E-06 12040   0.185E-02    0.218E-03
DAV:   3    -0.350509060408E+02    0.75410E-07   -0.27467E-07 12456   0.819E-03    0.103E-03
DAV:   4    -0.350509060237E+02    0.17097E-07   -0.61580E-08 10976   0.538E-03    0.229E-04
DAV:   5    -0.350509060263E+02   -0.25784E-08   -0.22226E-08  6632   0.236E-03
  18 F= -.35050906E+02 E0= -.35050023E+02  d E =-.178891E-06
 curvature:  -0.69 expect dE=-0.101E-06 dE for cont linesearch -0.117E-07
 trial: gam= 0.14889 g(F)=  0.139E-06 g(S)=  0.745E-08 ort = 0.115E-06 (trialstep = 0.134E+01)
 search vector abs. value=  0.198E-06
 bond charge predicted
       N       E                     dE             d eps       ncg     rms          rms(c)
DAV:   1    -0.350509060906E+02   -0.66875E-07   -0.66344E-05  9940   0.457E-02    0.253E-03
DAV:   2    -0.350509061767E+02   -0.86120E-07   -0.18432E-06 12308   0.116E-02    0.144E-03
DAV:   3    -0.350509061441E+02    0.32551E-07   -0.12691E-07 11928   0.659E-03    0.723E-04
DAV:   4    -0.350509061340E+02    0.10129E-07   -0.37658E-08  9492   0.411E-03    0.188E-04
DAV:   5    -0.350509061349E+02   -0.86447E-09   -0.13216E-08  5624   0.201E-03
  19 F= -.35050906E+02 E0= -.35050023E+02  d E =-.108600E-06
 trial-energy change:   -0.000000  1 .order   -0.000000   -0.000000   -0.000000
 step:   1.9323(harm=  1.9323)  dis= 0.00008  next Energy=   -35.050906 (dE=-0.158E-06)
 bond charge predicted
       N       E                     dE             d eps       ncg     rms          rms(c)
DAV:   1    -0.350509061366E+02   -0.26234E-08   -0.12790E-05  9936   0.200E-02    0.110E-03
DAV:   2    -0.350509061520E+02   -0.15390E-07   -0.35508E-07 12432   0.461E-03    0.620E-04
DAV:   3    -0.350509061420E+02    0.10002E-07   -0.15218E-08  6768   0.157E-03    0.302E-04
DAV:   4    -0.350509061393E+02    0.27139E-08   -0.74529E-09  5496   0.132E-03
  20 F= -.35050906E+02 E0= -.35050023E+02  d E =-.113033E-06
 curvature:  -1.17 expect dE=-0.129E-06 dE for cont linesearch -0.987E-09
 trial: gam= 0.76411 g(F)=  0.845E-07 g(S)=  0.257E-07 ort = 0.129E-07 (trialstep = 0.118E+01)
 search vector abs. value=  0.246E-06
 bond charge predicted
       N       E                     dE             d eps       ncg     rms          rms(c)
DAV:   1    -0.350509063048E+02   -0.16273E-06   -0.57143E-05  9984   0.434E-02    0.333E-03
DAV:   2    -0.350509062900E+02    0.14757E-07   -0.14982E-06 12528   0.146E-02    0.195E-03
DAV:   3    -0.350509062300E+02    0.60031E-07   -0.21350E-07 12308   0.111E-02    0.737E-04
DAV:   4    -0.350509062267E+02    0.32451E-08   -0.56204E-08 10572   0.586E-03
  21 F= -.35050906E+02 E0= -.35050023E+02  d E =-.874102E-07
 trial-energy change:   -0.000000  1 .order   -0.000000   -0.000000   -0.000000
 step:   2.3132(harm=  2.3132)  dis= 0.00006  next Energy=   -35.050906 (dE=-0.139E-06)
 bond charge predicted
       N       E                     dE             d eps       ncg     rms          rms(c)
DAV:   1    -0.350509063263E+02   -0.96324E-07   -0.53094E-05  9988   0.418E-02    0.321E-03
DAV:   2    -0.350509063153E+02    0.10944E-07   -0.13936E-06 12556   0.140E-02    0.187E-03
DAV:   3    -0.350509062614E+02    0.53975E-07   -0.19924E-07 12300   0.103E-02    0.703E-04
DAV:   4    -0.350509062585E+02    0.28390E-08   -0.51517E-08 10372   0.568E-03
  22 F= -.35050906E+02 E0= -.35050023E+02  d E =-.119221E-06
 curvature:  -2.37 expect dE=-0.128E-06 dE for cont linesearch -0.105E-08
 trial: gam= 0.46925 g(F)=  0.295E-07 g(S)=  0.245E-07 ort = 0.104E-07 (trialstep = 0.141E+01)
 search vector abs. value=  0.118E-06
 bond charge predicted
       N       E                     dE             d eps       ncg     rms          rms(c)
DAV:   1    -0.350509065878E+02   -0.32640E-06   -0.36249E-05 10084   0.429E-02    0.481E-03
DAV:   2    -0.350509064316E+02    0.15620E-06   -0.28038E-06 11444   0.227E-02    0.236E-03
DAV:   3    -0.350509063291E+02    0.10243E-06   -0.26172E-07 12216   0.741E-03    0.115E-03
DAV:   4    -0.350509062848E+02    0.44323E-07   -0.61766E-08 10676   0.455E-03    0.231E-04
DAV:   5    -0.350509062794E+02    0.53883E-08   -0.22016E-08  6016   0.208E-03
  23 F= -.35050906E+02 E0= -.35050023E+02  d E =-.208961E-07
 trial-energy change:   -0.000000  1 .order   -0.000000   -0.000000    0.000000
 step:   1.1198(harm=  1.1198)  dis= 0.00002  next Energy=   -35.050906 (dE=-0.329E-07)
 bond charge predicted
       N       E                     dE             d eps       ncg     rms          rms(c)
DAV:   1    -0.350509062820E+02    0.28417E-08   -0.14840E-06 10076   0.876E-03    0.979E-04
DAV:   2    -0.350509062725E+02    0.94751E-08   -0.11695E-07 10752   0.492E-03    0.488E-04
DAV:   3    -0.350509062791E+02   -0.66289E-08   -0.10483E-08  4992   0.176E-03
  24 F= -.35050906E+02 E0= -.35050023E+02  d E =-.205964E-07
 curvature:  -1.12 expect dE=-0.105E-06 dE for cont linesearch -0.130E-08
 trial: gam= 0.00000 g(F)=  0.460E-07 g(S)=  0.474E-07 ort = 0.117E-07 (trialstep = 0.135E+01)
 search vector abs. value=  0.935E-07
 reached required accuracy - stopping structural energy minimisation
 writing wavefunctions
Thu Jan  6 03:26:03 CST 2022
