Thu Jan  6 03:19:32 CST 2022
 running on   48 total cores
 distrk:  each k-point on   48 cores,    1 groups
 distr:  one band on   24 cores,    2 groups
 using from now: INCAR     
 vasp.5.3.5 31Mar14 (build Jan 11 2016 19:50:55) complex                        
  
 POSCAR found type information on POSCAR  Zn Ga N  O 
 POSCAR found :  4 types and       8 ions
 scaLAPACK will be used

 ----------------------------------------------------------------------------- 
|                                                                             |
|           W    W    AA    RRRRR   N    N  II  N    N   GGGG   !!!           |
|           W    W   A  A   R    R  NN   N  II  NN   N  G    G  !!!           |
|           W    W  A    A  R    R  N N  N  II  N N  N  G       !!!           |
|           W WW W  AAAAAA  RRRRR   N  N N  II  N  N N  G  GGG   !            |
|           WW  WW  A    A  R   R   N   NN  II  N   NN  G    G                |
|           W    W  A    A  R    R  N    N  II  N    N   GGGG   !!!           |
|                                                                             |
|      For optimal performance we recommend to set                            |
|        NCORE= 4 - approx SQRT( number of cores)                             |
|      NCORE specifies how many cores store one orbital (NPAR=cpu/NCORE).     |
|      This setting can  greatly improve the performance of VASP for DFT.     |
|      The default, NPAR=number of cores might be grossly inefficient         |
|      on modern multi-core architectures or massively parallel machines.     |
|      Do your own testing !!!!                                               |
|      Unfortunately you need to use the default for GW and RPA calculations. |
|      (for HF NCORE is supported but not extensively tested yet)             |
|                                                                             |
 ----------------------------------------------------------------------------- 

 LDA part: xc-table for Pade appr. of Perdew
 POSCAR, INCAR and KPOINTS ok, starting setup
 WARNING: small aliasing (wrap around) errors must be expected
 FFT: planning ...
 WAVECAR not read
 entering main loop
       N       E                     dE             d eps       ncg     rms          rms(c)
DAV:   1     0.898061182727E+03    0.89806E+03   -0.41969E+04 10140   0.320E+03
DAV:   2     0.147534160519E+03   -0.75053E+03   -0.72117E+03  9952   0.768E+02
DAV:   3    -0.281352937802E+02   -0.17567E+03   -0.17079E+03 11392   0.263E+02
DAV:   4    -0.441078937572E+02   -0.15973E+02   -0.15806E+02 12588   0.803E+01
DAV:   5    -0.445879366336E+02   -0.48004E+00   -0.47795E+00 12272   0.137E+01    0.165E+01
DAV:   6    -0.373116433068E+02    0.72763E+01   -0.21965E+01 19004   0.819E+01    0.795E+00
DAV:   7    -0.378405010725E+02   -0.52886E+00   -0.83609E+00 10580   0.196E+01    0.518E+00
DAV:   8    -0.377579014128E+02    0.82600E-01   -0.11432E+00 16592   0.118E+01    0.239E+00
DAV:   9    -0.377208736517E+02    0.37028E-01   -0.24766E-01 13888   0.810E+00    0.611E-01
DAV:  10    -0.377236574675E+02   -0.27838E-02   -0.50293E-02 11524   0.284E+00    0.367E-01
DAV:  11    -0.377252004507E+02   -0.15430E-02   -0.12087E-02 12788   0.112E+00    0.199E-01
DAV:  12    -0.377258533114E+02   -0.65286E-03   -0.24210E-03 11504   0.752E-01    0.946E-02
DAV:  13    -0.377260102456E+02   -0.15693E-03   -0.11612E-03 12988   0.360E-01    0.457E-02
DAV:  14    -0.377260386738E+02   -0.28428E-04   -0.26116E-04 11816   0.214E-01    0.184E-02
DAV:  15    -0.377260717549E+02   -0.33081E-04   -0.84523E-05 10888   0.809E-02    0.127E-02
DAV:  16    -0.377260851725E+02   -0.13418E-04   -0.33028E-05 10924   0.672E-02    0.465E-03
DAV:  17    -0.377260865117E+02   -0.13393E-05   -0.59150E-06 12116   0.408E-02    0.269E-03
DAV:  18    -0.377260868751E+02   -0.36331E-06   -0.16936E-06 10800   0.174E-02    0.159E-03
DAV:  19    -0.377260869163E+02   -0.41252E-07   -0.45896E-07 11536   0.807E-03    0.447E-04
DAV:  20    -0.377260869154E+02    0.95815E-09   -0.80939E-08 11156   0.302E-03
   1 F= -.37726087E+02 E0= -.37726087E+02  d E =-.377261E+02
 curvature:   0.00 expect dE= 0.000E+00 dE for cont linesearch  0.000E+00
 trial: gam= 0.00000 g(F)=  0.199E-04 g(S)=  0.688E-02 ort = 0.000E+00 (trialstep = 0.100E+01)
 search vector abs. value=  0.690E-02
 bond charge predicted
       N       E                     dE             d eps       ncg     rms          rms(c)
DAV:   1    -0.377733198107E+02   -0.47233E-01   -0.87979E-01 12928   0.116E+01    0.150E+00
DAV:   2    -0.377388207361E+02    0.34499E-01   -0.17258E-01 12512   0.657E+00    0.653E-01
DAV:   3    -0.377323263420E+02    0.64944E-02   -0.15395E-02 13552   0.172E+00    0.309E-01
DAV:   4    -0.377301703348E+02    0.21560E-02   -0.32275E-03 15244   0.952E-01    0.783E-02
DAV:   5    -0.377301509393E+02    0.19395E-04   -0.15227E-03 10968   0.427E-01    0.328E-02
DAV:   6    -0.377301648182E+02   -0.13879E-04   -0.24678E-04 12220   0.161E-01    0.256E-02
DAV:   7    -0.377301642493E+02    0.56885E-06   -0.22514E-05 11832   0.944E-02    0.163E-02
DAV:   8    -0.377301657833E+02   -0.15340E-05   -0.10526E-05 15192   0.341E-02    0.487E-03
DAV:   9    -0.377301662181E+02   -0.43482E-06   -0.30868E-06 11568   0.168E-02    0.166E-03
DAV:  10    -0.377301663129E+02   -0.94718E-07   -0.65606E-07 12496   0.747E-03    0.102E-03
DAV:  11    -0.377301663798E+02   -0.66971E-07   -0.14099E-07 11804   0.431E-03    0.523E-04
DAV:  12    -0.377301664117E+02   -0.31897E-07   -0.47490E-08 10212   0.370E-03    0.220E-04
DAV:  13    -0.377301664170E+02   -0.53146E-08   -0.92043E-09  7232   0.126E-03
   2 F= -.37730166E+02 E0= -.37730166E+02  d E =-.407950E-02
 trial-energy change:   -0.004080  1 .order   -0.004103   -0.006901   -0.001305
 step:   1.2407(harm=  1.2331)  dis= 0.00069  next Energy=   -37.730323 (dE=-0.424E-02)
 bond charge predicted
       N       E                     dE             d eps       ncg     rms          rms(c)
DAV:   1    -0.377328078111E+02   -0.26414E-02   -0.50492E-02 12944   0.277E+00    0.359E-01
DAV:   2    -0.377308211113E+02    0.19867E-02   -0.10003E-02 12500   0.160E+00    0.156E-01
DAV:   3    -0.377304456874E+02    0.37542E-03   -0.87392E-04 13624   0.417E-01    0.740E-02
DAV:   4    -0.377303203265E+02    0.12536E-03   -0.18235E-04 15284   0.229E-01    0.187E-02
DAV:   5    -0.377303188304E+02    0.14961E-05   -0.87490E-05 10968   0.102E-01    0.774E-03
DAV:   6    -0.377303196723E+02   -0.84192E-06   -0.13956E-05 12232   0.404E-02    0.603E-03
DAV:   7    -0.377303197063E+02   -0.33990E-07   -0.13790E-06 11860   0.241E-02    0.384E-03
DAV:   8    -0.377303199266E+02   -0.22032E-06   -0.61987E-07 14912   0.103E-02    0.117E-03
DAV:   9    -0.377303199897E+02   -0.63108E-07   -0.18127E-07 11796   0.537E-03    0.389E-04
DAV:  10    -0.377303200016E+02   -0.11859E-07   -0.37190E-08  8916   0.197E-03    0.235E-04
DAV:  11    -0.377303200103E+02   -0.87575E-08   -0.81125E-09  6576   0.150E-03
   3 F= -.37730320E+02 E0= -.37730320E+02  d E =-.423309E-02
 curvature:  -0.62 expect dE=-0.249E-02 dE for cont linesearch -0.229E-08
 trial: gam= 0.58692 g(F)=  0.243E-02 g(S)=  0.162E-02 ort =-0.506E-05 (trialstep = 0.105E+01)
 search vector abs. value=  0.642E-02
 bond charge predicted
       N       E                     dE             d eps       ncg     rms          rms(c)
DAV:   1    -0.377434485491E+02   -0.13129E-01   -0.91058E-01  9876   0.569E+00    0.740E-01
DAV:   2    -0.377373422288E+02    0.61063E-02   -0.34477E-02 12968   0.253E+00    0.441E-01
DAV:   3    -0.377335854507E+02    0.37568E-02   -0.81121E-03 13700   0.168E+00    0.147E-01
DAV:   4    -0.377334028489E+02    0.18260E-03   -0.23867E-03 10856   0.933E-01    0.370E-02
DAV:   5    -0.377334603970E+02   -0.57548E-04   -0.75399E-04 11508   0.224E-01    0.256E-02
DAV:   6    -0.377334561300E+02    0.42670E-05   -0.38028E-05 12200   0.116E-01    0.142E-02
DAV:   7    -0.377334563678E+02   -0.23784E-06   -0.20587E-05 12576   0.634E-02    0.550E-03
DAV:   8    -0.377334564829E+02   -0.11503E-06   -0.80090E-06 12736   0.482E-02    0.251E-03
DAV:   9    -0.377334565886E+02   -0.10577E-06   -0.17738E-06 12928   0.164E-02    0.191E-03
DAV:  10    -0.377334565888E+02   -0.19190E-09   -0.33207E-07 15200   0.811E-03    0.786E-04
DAV:  11    -0.377334565979E+02   -0.90299E-08   -0.12505E-07 10692   0.544E-03    0.418E-04
DAV:  12    -0.377334565962E+02    0.16998E-08   -0.15174E-08  7328   0.142E-03
   4 F= -.37733457E+02 E0= -.37733457E+02  d E =-.313659E-02
 trial-energy change:   -0.003137  1 .order   -0.003130   -0.004237   -0.002023
 step:   2.0061(harm=  2.0061)  dis= 0.00761  next Energy=   -37.734375 (dE=-0.405E-02)
 bond charge predicted
       N       E                     dE             d eps       ncg     rms          rms(c)
DAV:   1    -0.377426829265E+02   -0.92263E-02   -0.75899E-01  9876   0.520E+00    0.675E-01
DAV:   2    -0.377376190343E+02    0.50639E-02   -0.28752E-02 13008   0.232E+00    0.403E-01
DAV:   3    -0.377344936836E+02    0.31254E-02   -0.68104E-03 13664   0.154E+00    0.134E-01
DAV:   4    -0.377343432749E+02    0.15041E-03   -0.20027E-03 10868   0.855E-01    0.339E-02
DAV:   5    -0.377343911089E+02   -0.47834E-04   -0.63196E-04 11512   0.202E-01    0.232E-02
DAV:   6    -0.377343874730E+02    0.36358E-05   -0.30100E-05 12192   0.995E-02    0.130E-02
DAV:   7    -0.377343876543E+02   -0.18133E-06   -0.17343E-05 12180   0.534E-02    0.506E-03
DAV:   8    -0.377343877138E+02   -0.59480E-07   -0.65748E-06 12748   0.426E-02    0.225E-03
DAV:   9    -0.377343878055E+02   -0.91718E-07   -0.14620E-06 13028   0.149E-02    0.179E-03
DAV:  10    -0.377343878017E+02    0.38872E-08   -0.27948E-07 14972   0.753E-03    0.730E-04
DAV:  11    -0.377343878076E+02   -0.59767E-08   -0.10427E-07 10688   0.507E-03    0.391E-04
DAV:  12    -0.377343878057E+02    0.19286E-08   -0.11961E-08  6872   0.132E-03
   5 F= -.37734388E+02 E0= -.37734388E+02  d E =-.406780E-02
 curvature:  -1.59 expect dE=-0.408E-02 dE for cont linesearch -0.217E-08
 trial: gam= 0.62283 g(F)=  0.207E-02 g(S)=  0.500E-03 ort =-0.296E-05 (trialstep = 0.124E+01)
 search vector abs. value=  0.505E-02
 bond charge predicted
       N       E                     dE             d eps       ncg     rms          rms(c)
DAV:   1    -0.377369408557E+02   -0.25530E-02   -0.13087E+00  9856   0.694E+00    0.571E-01
DAV:   2    -0.377371666247E+02   -0.22577E-03   -0.61084E-02 12172   0.281E+00    0.327E-01
DAV:   3    -0.377362423783E+02    0.92425E-03   -0.69577E-03 11960   0.937E-01    0.170E-01
DAV:   4    -0.377357913243E+02    0.45105E-03   -0.14261E-03 12416   0.587E-01    0.438E-02
DAV:   5    -0.377358037373E+02   -0.12413E-04   -0.45467E-04 10764   0.226E-01    0.190E-02
DAV:   6    -0.377358103331E+02   -0.65958E-05   -0.10609E-04 13108   0.996E-02    0.131E-02
DAV:   7    -0.377358096237E+02    0.70931E-06   -0.12119E-05 12816   0.634E-02    0.791E-03
DAV:   8    -0.377358103708E+02   -0.74709E-06   -0.56748E-06 13080   0.223E-02    0.237E-03
DAV:   9    -0.377358104064E+02   -0.35545E-07   -0.59132E-07 12272   0.127E-02    0.102E-03
DAV:  10    -0.377358104517E+02   -0.45314E-07   -0.20193E-07 11280   0.405E-03    0.628E-04
DAV:  11    -0.377358104605E+02   -0.88448E-08   -0.30165E-08  9644   0.278E-03
   6 F= -.37735810E+02 E0= -.37735810E+02  d E =-.142265E-02
 trial-energy change:   -0.001423  1 .order   -0.001432   -0.003178    0.000315
 step:   1.1263(harm=  1.1279)  dis= 0.00963  next Energy=   -37.735825 (dE=-0.144E-02)
 bond charge predicted
       N       E                     dE             d eps       ncg     rms          rms(c)
DAV:   1    -0.377358344189E+02   -0.23967E-04   -0.10940E-02  9864   0.630E-01    0.521E-02
DAV:   2    -0.377358354866E+02   -0.10677E-05   -0.50031E-04 12164   0.252E-01    0.298E-02
DAV:   3    -0.377358280535E+02    0.74331E-05   -0.57126E-05 12428   0.844E-02    0.154E-02
DAV:   4    -0.377358243283E+02    0.37252E-05   -0.11372E-05 12496   0.507E-02    0.392E-03
DAV:   5    -0.377358244383E+02   -0.10996E-06   -0.37227E-06 10720   0.200E-02    0.173E-03
DAV:   6    -0.377358244447E+02   -0.64556E-08   -0.82925E-07 13136   0.901E-03    0.118E-03
DAV:   7    -0.377358244279E+02    0.16839E-07   -0.92365E-08 11908   0.534E-03    0.704E-04
DAV:   8    -0.377358244093E+02    0.18524E-07   -0.41249E-08  9008   0.203E-03    0.202E-04
DAV:   9    -0.377358244071E+02    0.22624E-08   -0.67422E-09  5780   0.148E-03
   7 F= -.37735824E+02 E0= -.37735824E+02  d E =-.143660E-02
 curvature:  -1.11 expect dE=-0.112E-02 dE for cont linesearch -0.113E-08
 trial: gam= 0.38852 g(F)=  0.682E-03 g(S)=  0.323E-03 ort = 0.227E-05 (trialstep = 0.122E+01)
 search vector abs. value=  0.177E-02
 bond charge predicted
       N       E                     dE             d eps       ncg     rms          rms(c)
DAV:   1    -0.377380001492E+02   -0.21757E-02   -0.44491E-01  9856   0.417E+00    0.406E-01
DAV:   2    -0.377373118141E+02    0.68834E-03   -0.22770E-02 11684   0.177E+00    0.216E-01
DAV:   3    -0.377367405946E+02    0.57122E-03   -0.23200E-03 12464   0.644E-01    0.108E-01
DAV:   4    -0.377365586195E+02    0.18198E-03   -0.66273E-04 12480   0.350E-01    0.252E-02
DAV:   5    -0.377365663987E+02   -0.77792E-05   -0.20421E-04 10996   0.138E-01    0.115E-02
DAV:   6    -0.377365674795E+02   -0.10808E-05   -0.28846E-05 12876   0.625E-02    0.724E-03
DAV:   7    -0.377365673577E+02    0.12179E-06   -0.40032E-06 12596   0.378E-02    0.437E-03
DAV:   8    -0.377365673428E+02    0.14943E-07   -0.19254E-06 12116   0.181E-02    0.147E-03
DAV:   9    -0.377365673322E+02    0.10605E-07   -0.37179E-07 12744   0.910E-03    0.722E-04
DAV:  10    -0.377365673364E+02   -0.42546E-08   -0.17083E-07 12808   0.463E-03    0.601E-04
DAV:  11    -0.377365673235E+02    0.12947E-07   -0.26240E-08  8468   0.194E-03    0.242E-04
DAV:  12    -0.377365673209E+02    0.26030E-08   -0.11933E-08  6260   0.114E-03
   8 F= -.37736567E+02 E0= -.37736567E+02  d E =-.742914E-03
 trial-energy change:   -0.000743  1 .order   -0.000741   -0.001224   -0.000257
 step:   1.5344(harm=  1.5404)  dis= 0.00468  next Energy=   -37.736601 (dE=-0.776E-03)
 bond charge predicted
       N       E                     dE             d eps       ncg     rms          rms(c)
DAV:   1    -0.377366989764E+02   -0.13165E-03   -0.30272E-02  9856   0.109E+00    0.106E-01
DAV:   2    -0.377366519919E+02    0.46984E-04   -0.15609E-03 11708   0.465E-01    0.565E-02
DAV:   3    -0.377366137097E+02    0.38282E-04   -0.15853E-04 12368   0.169E-01    0.281E-02
DAV:   4    -0.377366014951E+02    0.12215E-04   -0.45956E-05 12328   0.926E-02    0.662E-03
DAV:   5    -0.377366020722E+02   -0.57708E-06   -0.14135E-05 11020   0.374E-02    0.300E-03
DAV:   6    -0.377366021269E+02   -0.54634E-07   -0.20971E-06 12844   0.169E-02    0.190E-03
DAV:   7    -0.377366021030E+02    0.23877E-07   -0.30280E-07 12664   0.103E-02    0.115E-03
DAV:   8    -0.377366020708E+02    0.32214E-07   -0.14392E-07 12232   0.482E-03    0.391E-04
DAV:   9    -0.377366020664E+02    0.44065E-08   -0.24610E-08  7368   0.242E-03
   9 F= -.37736602E+02 E0= -.37736602E+02  d E =-.777659E-03
 curvature:  -1.35 expect dE=-0.731E-03 dE for cont linesearch -0.117E-07
 trial: gam= 0.53452 g(F)=  0.479E-03 g(S)=  0.609E-04 ort = 0.390E-05 (trialstep = 0.128E+01)
 search vector abs. value=  0.105E-02
 bond charge predicted
       N       E                     dE             d eps       ncg     rms          rms(c)
DAV:   1    -0.377370674112E+02   -0.46534E-03   -0.33146E-01  9856   0.318E+00    0.236E-01
DAV:   2    -0.377372748023E+02   -0.20739E-03   -0.10257E-02 11384   0.805E-01    0.136E-01
DAV:   3    -0.377370319053E+02    0.24290E-03   -0.73530E-04 13144   0.228E-01    0.592E-02
DAV:   4    -0.377369870955E+02    0.44810E-04   -0.19524E-04 13236   0.145E-01    0.161E-02
DAV:   5    -0.377369875497E+02   -0.45427E-06   -0.46703E-05 11136   0.840E-02    0.785E-03
DAV:   6    -0.377369881332E+02   -0.58350E-06   -0.12211E-05 12996   0.482E-02    0.544E-03
DAV:   7    -0.377369880735E+02    0.59754E-07   -0.18339E-06 11552   0.263E-02    0.346E-03
DAV:   8    -0.377369880685E+02    0.49777E-08   -0.11870E-06 13804   0.110E-02    0.126E-03
DAV:   9    -0.377369880635E+02    0.49536E-08   -0.26819E-07 13692   0.506E-03    0.451E-04
DAV:  10    -0.377369880679E+02   -0.43624E-08   -0.53431E-08 10120   0.167E-03
  10 F= -.37736988E+02 E0= -.37736988E+02  d E =-.386002E-03
 trial-energy change:   -0.000386  1 .order   -0.000386   -0.000694   -0.000077
 step:   1.4407(harm=  1.4407)  dis= 0.00382  next Energy=   -37.736993 (dE=-0.390E-03)
 bond charge predicted
       N       E                     dE             d eps       ncg     rms          rms(c)
DAV:   1    -0.377369941863E+02   -0.61228E-05   -0.51865E-03  9856   0.398E-01    0.295E-02
DAV:   2    -0.377369974032E+02   -0.32169E-05   -0.16015E-04 11404   0.101E-01    0.170E-02
DAV:   3    -0.377369936473E+02    0.37559E-05   -0.11524E-05 13272   0.293E-02    0.738E-03
DAV:   4    -0.377369929461E+02    0.70121E-06   -0.30933E-06 13168   0.189E-02    0.202E-03
DAV:   5    -0.377369929702E+02   -0.24173E-07   -0.75871E-07 11084   0.101E-02    0.978E-04
DAV:   6    -0.377369929791E+02   -0.88849E-08   -0.17541E-07 13064   0.559E-03    0.677E-04
DAV:   7    -0.377369929762E+02    0.29381E-08   -0.27048E-08  7828   0.265E-03
  11 F= -.37736993E+02 E0= -.37736993E+02  d E =-.390910E-03
 curvature:  -1.39 expect dE=-0.484E-03 dE for cont linesearch -0.975E-10
 trial: gam= 0.64974 g(F)=  0.329E-03 g(S)=  0.180E-04 ort =-0.271E-06 (trialstep = 0.131E+01)
 search vector abs. value=  0.790E-03
 bond charge predicted
       N       E                     dE             d eps       ncg     rms          rms(c)
DAV:   1    -0.377366843749E+02    0.30860E-03   -0.29003E-01  9868   0.288E+00    0.140E-01
DAV:   2    -0.377373487297E+02   -0.66435E-03   -0.85420E-03 10888   0.613E-01    0.729E-02
DAV:   3    -0.377373043052E+02    0.44425E-04   -0.33274E-04 13288   0.164E-01    0.399E-02
DAV:   4    -0.377372828920E+02    0.21413E-04   -0.74882E-05 13408   0.168E-01    0.105E-02
DAV:   5    -0.377372840842E+02   -0.11923E-05   -0.27606E-05 11652   0.847E-02    0.567E-03
DAV:   6    -0.377372843457E+02   -0.26150E-06   -0.64619E-06 12716   0.200E-02    0.369E-03
DAV:   7    -0.377372842633E+02    0.82462E-07   -0.51458E-07 13376   0.121E-02    0.242E-03
DAV:   8    -0.377372842246E+02    0.38705E-07   -0.32968E-07 14628   0.772E-03    0.563E-04
DAV:   9    -0.377372842293E+02   -0.47007E-08   -0.96904E-08 10692   0.412E-03
  12 F= -.37737284E+02 E0= -.37737284E+02  d E =-.291253E-03
 trial-energy change:   -0.000291  1 .order   -0.000295   -0.000455   -0.000135
 step:   1.9390(harm=  1.8676)  dis= 0.00542  next Energy=   -37.737316 (dE=-0.323E-03)
 bond charge predicted
       N       E                     dE             d eps       ncg     rms          rms(c)
DAV:   1    -0.377371756064E+02    0.10862E-03   -0.66047E-02  9868   0.138E+00    0.669E-02
DAV:   2    -0.377373267147E+02   -0.15111E-03   -0.19423E-03 10892   0.293E-01    0.348E-02
DAV:   3    -0.377373165166E+02    0.10198E-04   -0.75362E-05 13280   0.780E-02    0.190E-02
DAV:   4    -0.377373115768E+02    0.49398E-05   -0.17022E-05 13400   0.810E-02    0.496E-03
DAV:   5    -0.377373118595E+02   -0.28273E-06   -0.62954E-06 11648   0.406E-02    0.271E-03
DAV:   6    -0.377373119176E+02   -0.58081E-07   -0.14698E-06 12736   0.954E-03    0.176E-03
DAV:   7    -0.377373118937E+02    0.23900E-07   -0.11752E-07 12940   0.560E-03    0.115E-03
DAV:   8    -0.377373118793E+02    0.14448E-07   -0.71562E-08 13244   0.385E-03    0.267E-04
DAV:   9    -0.377373118795E+02   -0.21237E-09   -0.24068E-08  7832   0.208E-03
  13 F= -.37737312E+02 E0= -.37737312E+02  d E =-.318903E-03
 curvature:  -2.09 expect dE=-0.574E-03 dE for cont linesearch -0.460E-06
 trial: gam= 0.82775 g(F)=  0.186E-03 g(S)=  0.881E-04 ort =-0.132E-04 (trialstep = 0.143E+01)
 search vector abs. value=  0.794E-03
 bond charge predicted
       N       E                     dE             d eps       ncg     rms          rms(c)
DAV:   1    -0.377371257084E+02    0.18617E-03   -0.34247E-01  9864   0.325E+00    0.223E-01
DAV:   2    -0.377376587407E+02   -0.53303E-03   -0.13413E-02 11568   0.111E+00    0.119E-01
DAV:   3    -0.377375556574E+02    0.10308E-03   -0.94409E-04 12252   0.345E-01    0.608E-02
DAV:   4    -0.377374974862E+02    0.58171E-04   -0.18674E-04 13616   0.194E-01    0.155E-02
DAV:   5    -0.377374999335E+02   -0.24474E-05   -0.63695E-05 10784   0.769E-02    0.717E-03
DAV:   6    -0.377375001149E+02   -0.18137E-06   -0.78790E-06 13228   0.370E-02    0.420E-03
DAV:   7    -0.377375000726E+02    0.42271E-07   -0.11473E-06 12712   0.292E-02    0.234E-03
DAV:   8    -0.377375001503E+02   -0.77684E-07   -0.55642E-07 13852   0.738E-03    0.654E-04
DAV:   9    -0.377375001586E+02   -0.82800E-08   -0.10773E-07 12792   0.524E-03    0.452E-04
DAV:  10    -0.377375001735E+02   -0.14890E-07   -0.21135E-08  8048   0.153E-03    0.225E-04
DAV:  11    -0.377375001785E+02   -0.49972E-08   -0.56962E-09  5920   0.939E-04
  14 F= -.37737500E+02 E0= -.37737500E+02  d E =-.188299E-03
 trial-energy change:   -0.000188  1 .order   -0.000188   -0.000377    0.000001
 step:   1.4264(harm=  1.4264)  dis= 0.00376  next Energy=   -37.737500 (dE=-0.188E-03)
 bond charge predicted
       N       E                     dE             d eps       ncg     rms          rms(c)
DAV:   1    -0.377375001769E+02   -0.33961E-08   -0.27754E-06 10060   0.930E-03    0.636E-04
DAV:   2    -0.377375001804E+02   -0.35116E-08   -0.10636E-07 11360   0.311E-03    0.336E-04
DAV:   3    -0.377375001856E+02   -0.51987E-08   -0.58653E-09  5388   0.929E-04
  15 F= -.37737500E+02 E0= -.37737500E+02  d E =-.188306E-03
 curvature:  -2.15 expect dE=-0.279E-03 dE for cont linesearch -0.128E-08
 trial: gam= 0.40973 g(F)=  0.103E-03 g(S)=  0.270E-04 ort =-0.687E-06 (trialstep = 0.143E+01)
 search vector abs. value=  0.262E-03
 bond charge predicted
       N       E                     dE             d eps       ncg     rms          rms(c)
DAV:   1    -0.377376515933E+02   -0.15141E-03   -0.10932E-01  9856   0.186E+00    0.141E-01
DAV:   2    -0.377377305217E+02   -0.78928E-04   -0.37498E-03 11600   0.587E-01    0.808E-02
DAV:   3    -0.377376397968E+02    0.90725E-04   -0.34231E-04 12292   0.315E-01    0.351E-02
DAV:   4    -0.377376234266E+02    0.16370E-04   -0.98627E-05 12500   0.232E-01    0.823E-03
DAV:   5    -0.377376262377E+02   -0.28111E-05   -0.38850E-05 10976   0.853E-02    0.506E-03
DAV:   6    -0.377376266716E+02   -0.43387E-06   -0.82703E-06 12604   0.385E-02    0.316E-03
DAV:   7    -0.377376266788E+02   -0.71809E-08   -0.13682E-06 12792   0.199E-02    0.148E-03
DAV:   8    -0.377376266883E+02   -0.95288E-08   -0.48421E-07 14008   0.986E-03    0.775E-04
DAV:   9    -0.377376266861E+02    0.21473E-08   -0.90100E-08 10132   0.547E-03
  16 F= -.37737627E+02 E0= -.37737627E+02  d E =-.126501E-03
 trial-energy change:   -0.000127  1 .order   -0.000124   -0.000185   -0.000062
 step:   2.0387(harm=  2.1566)  dis= 0.00355  next Energy=   -37.737640 (dE=-0.140E-03)
 bond charge predicted
       N       E                     dE             d eps       ncg     rms          rms(c)
DAV:   1    -0.377376471307E+02   -0.20442E-04   -0.19842E-02  9856   0.793E-01    0.601E-02
DAV:   2    -0.377376614987E+02   -0.14368E-04   -0.68191E-04 11600   0.251E-01    0.345E-02
DAV:   3    -0.377376452591E+02    0.16240E-04   -0.62255E-05 12280   0.135E-01    0.150E-02
DAV:   4    -0.377376423212E+02    0.29378E-05   -0.17997E-05 12508   0.982E-02    0.349E-03
DAV:   5    -0.377376428359E+02   -0.51469E-06   -0.70879E-06 11028   0.365E-02    0.216E-03
DAV:   6    -0.377376429096E+02   -0.73711E-07   -0.14909E-06 12580   0.165E-02    0.135E-03
DAV:   7    -0.377376429022E+02    0.74347E-08   -0.25019E-07 12704   0.855E-03    0.626E-04
DAV:   8    -0.377376428987E+02    0.34611E-08   -0.86265E-08 11304   0.427E-03
  17 F= -.37737643E+02 E0= -.37737643E+02  d E =-.142713E-03
 curvature:  -2.13 expect dE=-0.216E-03 dE for cont linesearch -0.451E-06
 trial: gam= 0.74422 g(F)=  0.803E-04 g(S)=  0.211E-04 ort = 0.746E-05 (trialstep = 0.155E+01)
 search vector abs. value=  0.258E-03
 bond charge predicted
       N       E                     dE             d eps       ncg     rms          rms(c)
DAV:   1    -0.377379669214E+02   -0.32402E-03   -0.11497E-01  9860   0.194E+00    0.168E-01
DAV:   2    -0.377379130457E+02    0.53876E-04   -0.38982E-03 11704   0.699E-01    0.990E-02
DAV:   3    -0.377377766179E+02    0.13643E-03   -0.47928E-04 12324   0.366E-01    0.412E-02
DAV:   4    -0.377377540296E+02    0.22588E-04   -0.13268E-04 12496   0.215E-01    0.996E-03
DAV:   5    -0.377377570527E+02   -0.30231E-05   -0.45280E-05 10932   0.867E-02    0.616E-03
DAV:   6    -0.377377573677E+02   -0.31502E-06   -0.84269E-06 12596   0.514E-02    0.366E-03
DAV:   7    -0.377377574569E+02   -0.89176E-07   -0.18283E-06 13680   0.177E-02    0.176E-03
DAV:   8    -0.377377574980E+02   -0.41115E-07   -0.37602E-07 12640   0.610E-03    0.661E-04
DAV:   9    -0.377377574980E+02    0.62300E-10   -0.58771E-08 10412   0.408E-03
  18 F= -.37737757E+02 E0= -.37737757E+02  d E =-.114599E-03
 trial-energy change:   -0.000115  1 .order   -0.000116   -0.000166   -0.000067
 step:   2.8585(harm=  2.5980)  dis= 0.00365  next Energy=   -37.737785 (dE=-0.142E-03)
 bond charge predicted
       N       E                     dE             d eps       ncg     rms          rms(c)
DAV:   1    -0.377379280804E+02   -0.17058E-03   -0.81618E-02  9860   0.164E+00    0.142E-01
DAV:   2    -0.377378898920E+02    0.38188E-04   -0.27645E-03 11704   0.589E-01    0.834E-02
DAV:   3    -0.377377928215E+02    0.97071E-04   -0.33981E-04 12332   0.307E-01    0.346E-02
DAV:   4    -0.377377768882E+02    0.15933E-04   -0.94011E-05 12496   0.181E-01    0.837E-03
DAV:   5    -0.377377790369E+02   -0.21487E-05   -0.32114E-05 10940   0.730E-02    0.519E-03
DAV:   6    -0.377377792571E+02   -0.22020E-06   -0.59293E-06 12600   0.431E-02    0.308E-03
DAV:   7    -0.377377793217E+02   -0.64551E-07   -0.12846E-06 13524   0.148E-02    0.148E-03
DAV:   8    -0.377377793519E+02   -0.30253E-07   -0.26609E-07 12564   0.513E-03    0.555E-04
DAV:   9    -0.377377793515E+02    0.37107E-09   -0.40260E-08  8976   0.343E-03
  19 F= -.37737779E+02 E0= -.37737779E+02  d E =-.136453E-03
 curvature:  -2.94 expect dE=-0.194E-03 dE for cont linesearch -0.127E-05
 trial: gam= 0.87052 g(F)=  0.378E-04 g(S)=  0.283E-04 ort =-0.106E-04 (trialstep = 0.181E+01)
 search vector abs. value=  0.243E-03
 bond charge predicted
       N       E                     dE             d eps       ncg     rms          rms(c)
DAV:   1    -0.377384535738E+02   -0.67422E-03   -0.14082E-01  9860   0.246E+00    0.255E-01
DAV:   2    -0.377380815186E+02    0.37206E-03   -0.86178E-03 11532   0.120E+00    0.138E-01
DAV:   3    -0.377378524377E+02    0.22908E-03   -0.90546E-04 13140   0.421E-01    0.651E-02
DAV:   4    -0.377377779048E+02    0.74533E-04   -0.20720E-04 13612   0.243E-01    0.143E-02
DAV:   5    -0.377377816300E+02   -0.37252E-05   -0.75009E-05 10656   0.100E-01    0.695E-03
DAV:   6    -0.377377821338E+02   -0.50379E-06   -0.12868E-05 12604   0.577E-02    0.486E-03
DAV:   7    -0.377377820449E+02    0.88896E-07   -0.18615E-06 11856   0.306E-02    0.260E-03
DAV:   8    -0.377377820252E+02    0.19751E-07   -0.80521E-07 14352   0.819E-03    0.958E-04
DAV:   9    -0.377377820231E+02    0.20214E-08   -0.15026E-07 10896   0.494E-03    0.634E-04
DAV:  10    -0.377377820027E+02    0.20429E-07   -0.29509E-08  7748   0.321E-03    0.231E-04
DAV:  11    -0.377377819961E+02    0.66175E-08   -0.85594E-09  5976   0.133E-03
  20 F= -.37737782E+02 E0= -.37737782E+02  d E =-.264453E-05
 trial-energy change:   -0.000003  1 .order   -0.000000   -0.000103    0.000102
 step:   0.9396(harm=  0.9101)  dis= 0.00111  next Energy=   -37.737806 (dE=-0.270E-04)
 bond charge predicted
       N       E                     dE             d eps       ncg     rms          rms(c)
DAV:   1    -0.377379640833E+02   -0.18208E-03   -0.32705E-02  9860   0.119E+00    0.123E-01
DAV:   2    -0.377378792053E+02    0.84878E-04   -0.20101E-03 11536   0.580E-01    0.664E-02
DAV:   3    -0.377378241760E+02    0.55029E-04   -0.21050E-04 13236   0.203E-01    0.313E-02
DAV:   4    -0.377378060619E+02    0.18114E-04   -0.47681E-05 13580   0.115E-01    0.694E-03
DAV:   5    -0.377378068028E+02   -0.74094E-06   -0.17171E-05 10660   0.475E-02    0.333E-03
DAV:   6    -0.377378069410E+02   -0.13813E-06   -0.29342E-06 12596   0.277E-02    0.234E-03
DAV:   7    -0.377378069550E+02   -0.14023E-07   -0.42333E-07 11844   0.146E-02    0.125E-03
DAV:   8    -0.377378070036E+02   -0.48631E-07   -0.18374E-07 14252   0.390E-03    0.457E-04
DAV:   9    -0.377378070116E+02   -0.80240E-08   -0.32971E-08  8872   0.233E-03
  21 F= -.37737807E+02 E0= -.37737807E+02  d E =-.276601E-04
 curvature:  -1.94 expect dE=-0.422E-04 dE for cont linesearch -0.350E-07
 trial: gam= 0.17427 g(F)=  0.117E-04 g(S)=  0.100E-04 ort =-0.209E-05 (trialstep = 0.164E+01)
 search vector abs. value=  0.284E-04
 bond charge predicted
       N       E                     dE             d eps       ncg     rms          rms(c)
DAV:   1    -0.377378880459E+02   -0.81042E-04   -0.12655E-02  9964   0.791E-01    0.852E-02
DAV:   2    -0.377378487422E+02    0.39304E-04   -0.10201E-03 11928   0.447E-01    0.430E-02
DAV:   3    -0.377378265678E+02    0.22174E-04   -0.10990E-04 12660   0.136E-01    0.210E-02
DAV:   4    -0.377378186974E+02    0.78704E-05   -0.23500E-05 12460   0.690E-02    0.531E-03
DAV:   5    -0.377378189154E+02   -0.21793E-06   -0.75858E-06 11168   0.333E-02    0.232E-03
DAV:   6    -0.377378189825E+02   -0.67097E-07   -0.12104E-06 12384   0.196E-02    0.152E-03
DAV:   7    -0.377378190410E+02   -0.58576E-07   -0.26606E-07 13640   0.827E-03    0.697E-04
DAV:   8    -0.377378190616E+02   -0.20595E-07   -0.75004E-08 11540   0.308E-03    0.353E-04
DAV:   9    -0.377378190722E+02   -0.10565E-07   -0.15005E-08  5936   0.182E-03    0.199E-04
DAV:  10    -0.377378190827E+02   -0.10451E-07   -0.42752E-09  5672   0.858E-04    0.879E-05
DAV:  11    -0.377378190847E+02   -0.20768E-08   -0.14312E-09  5452   0.539E-04
  22 F= -.37737819E+02 E0= -.37737819E+02  d E =-.120731E-04
 trial-energy change:   -0.000012  1 .order   -0.000011   -0.000035    0.000014
 step:   1.2297(harm=  1.1727)  dis= 0.00047  next Energy=   -37.737821 (dE=-0.138E-04)
 bond charge predicted
       N       E                     dE             d eps       ncg     rms          rms(c)
DAV:   1    -0.377378251531E+02   -0.60704E-05   -0.78670E-04  9924   0.197E-01    0.213E-02
DAV:   2    -0.377378225970E+02    0.25560E-05   -0.63632E-05 11928   0.112E-01    0.107E-02
DAV:   3    -0.377378214296E+02    0.11674E-05   -0.68224E-06 12636   0.338E-02    0.525E-03
DAV:   4    -0.377378210197E+02    0.40988E-06   -0.14591E-06 12452   0.172E-02    0.132E-03
DAV:   5    -0.377378210397E+02   -0.19996E-07   -0.47230E-07 11144   0.832E-03    0.578E-04
DAV:   6    -0.377378210339E+02    0.58303E-08   -0.74900E-08 10680   0.489E-03
  23 F= -.37737821E+02 E0= -.37737821E+02  d E =-.140223E-04
 curvature:  -0.77 expect dE=-0.729E-05 dE for cont linesearch -0.224E-07
 trial: gam= 0.48227 g(F)=  0.679E-05 g(S)=  0.271E-05 ort =-0.911E-06 (trialstep = 0.156E+01)
 search vector abs. value=  0.152E-04
 bond charge predicted
       N       E                     dE             d eps       ncg     rms          rms(c)
DAV:   1    -0.377378501233E+02   -0.29084E-04   -0.58332E-03  9876   0.449E-01    0.467E-02
DAV:   2    -0.377378391092E+02    0.11014E-04   -0.22983E-04 12888   0.206E-01    0.280E-02
DAV:   3    -0.377378265784E+02    0.12531E-04   -0.41918E-05 13080   0.142E-01    0.113E-02
DAV:   4    -0.377378253357E+02    0.12427E-05   -0.11384E-05 11684   0.676E-02    0.300E-03
DAV:   5    -0.377378255626E+02   -0.22689E-06   -0.40259E-06 12952   0.152E-02    0.167E-03
DAV:   6    -0.377378255454E+02    0.17165E-07   -0.30925E-07 11716   0.687E-03    0.114E-03
DAV:   7    -0.377378255259E+02    0.19540E-07   -0.11963E-07 12680   0.495E-03    0.505E-04
DAV:   8    -0.377378255256E+02    0.26284E-09   -0.30515E-08  8196   0.219E-03
  24 F= -.37737826E+02 E0= -.37737826E+02  d E =-.449173E-05
 trial-energy change:   -0.000004  1 .order   -0.000006   -0.000014    0.000002
 step:   1.1963(harm=  1.3415)  dis= 0.00030  next Energy=   -37.737826 (dE=-0.477E-05)
 bond charge predicted
       N       E                     dE             d eps       ncg     rms          rms(c)
DAV:   1    -0.377378269785E+02   -0.14526E-05   -0.31259E-04  9876   0.104E-01    0.108E-02
DAV:   2    -0.377378263864E+02    0.59208E-06   -0.12265E-05 12912   0.470E-02    0.649E-03
DAV:   3    -0.377378256911E+02    0.69536E-06   -0.21886E-06 12984   0.325E-02    0.258E-03
DAV:   4    -0.377378256254E+02    0.65649E-07   -0.59886E-07 11588   0.156E-02    0.662E-04
DAV:   5    -0.377378256413E+02   -0.15929E-07   -0.20936E-07 12776   0.349E-03    0.377E-04
DAV:   6    -0.377378256415E+02   -0.14552E-09   -0.13883E-08  6040   0.156E-03
  25 F= -.37737826E+02 E0= -.37737826E+02  d E =-.460757E-05
 curvature:  -0.61 expect dE=-0.198E-05 dE for cont linesearch -0.421E-07
 trial: gam= 0.16493 g(F)=  0.260E-05 g(S)=  0.624E-06 ort = 0.102E-05 (trialstep = 0.148E+01)
 search vector abs. value=  0.398E-05
 bond charge predicted
       N       E                     dE             d eps       ncg     rms          rms(c)
DAV:   1    -0.377378274593E+02   -0.18180E-05   -0.17874E-03 10072   0.243E-01    0.153E-02
DAV:   2    -0.377378287982E+02   -0.13389E-05   -0.51521E-05 11196   0.816E-02    0.874E-03
DAV:   3    -0.377378279538E+02    0.84444E-06   -0.52754E-06 12552   0.310E-02    0.440E-03
DAV:   4    -0.377378275905E+02    0.36324E-06   -0.11217E-06 12924   0.204E-02    0.971E-04
DAV:   5    -0.377378276156E+02   -0.25104E-07   -0.36228E-07 10784   0.910E-03    0.490E-04
DAV:   6    -0.377378276283E+02   -0.12625E-07   -0.76383E-08 10352   0.311E-03    0.344E-04
DAV:   7    -0.377378276330E+02   -0.47630E-08   -0.73356E-09  5888   0.198E-03
  26 F= -.37737828E+02 E0= -.37737828E+02  d E =-.199155E-05
 trial-energy change:   -0.000002  1 .order   -0.000002   -0.000005    0.000001
 step:   1.2251(harm=  1.2251)  dis= 0.00022  next Energy=   -37.737828 (dE=-0.208E-05)
 bond charge predicted
       N       E                     dE             d eps       ncg     rms          rms(c)
DAV:   1    -0.377378276917E+02   -0.63419E-07   -0.54346E-05 10092   0.425E-02    0.267E-03
DAV:   2    -0.377378277242E+02   -0.32564E-07   -0.15674E-06 11168   0.141E-02    0.152E-03
DAV:   3    -0.377378277287E+02   -0.44452E-08   -0.15754E-07 12588   0.518E-03    0.765E-04
DAV:   4    -0.377378277291E+02   -0.42110E-09   -0.26211E-08  7084   0.329E-03
  27 F= -.37737828E+02 E0= -.37737828E+02  d E =-.208763E-05
 curvature:  -0.72 expect dE=-0.101E-05 dE for cont linesearch -0.278E-09
 trial: gam= 0.48412 g(F)=  0.988E-06 g(S)=  0.424E-06 ort = 0.392E-07 (trialstep = 0.143E+01)
 search vector abs. value=  0.238E-05
 bond charge predicted
       N       E                     dE             d eps       ncg     rms          rms(c)
DAV:   1    -0.377378305463E+02   -0.28176E-05   -0.10520E-03 10172   0.218E-01    0.180E-02
DAV:   2    -0.377378289947E+02    0.15516E-05   -0.61728E-05 10860   0.104E-01    0.793E-03
DAV:   3    -0.377378288077E+02    0.18700E-06   -0.46674E-06 14232   0.286E-02    0.377E-03
DAV:   4    -0.377378286872E+02    0.12053E-06   -0.72962E-07 13684   0.108E-02    0.133E-03
DAV:   5    -0.377378287260E+02   -0.38850E-07   -0.22725E-07 11844   0.446E-03    0.393E-04
DAV:   6    -0.377378287243E+02    0.17099E-08   -0.35702E-08  8876   0.253E-03
  28 F= -.37737829E+02 E0= -.37737829E+02  d E =-.995193E-06
 trial-energy change:   -0.000001  1 .order   -0.000001   -0.000002    0.000000
 step:   1.3717(harm=  1.3717)  dis= 0.00022  next Energy=   -37.737829 (dE=-0.981E-06)
 bond charge predicted
       N       E                     dE             d eps       ncg     rms          rms(c)
DAV:   1    -0.377378287333E+02   -0.73023E-08   -0.18971E-06 10292   0.943E-03    0.723E-04
DAV:   2    -0.377378287296E+02    0.36948E-08   -0.11386E-07 10208   0.425E-03    0.360E-04
DAV:   3    -0.377378287169E+02    0.12767E-07   -0.63702E-09  5232   0.120E-03    0.168E-04
DAV:   4    -0.377378287076E+02    0.92818E-08   -0.26137E-09  5160   0.527E-04
  29 F= -.37737829E+02 E0= -.37737829E+02  d E =-.978462E-06
 curvature:  -1.14 expect dE=-0.934E-06 dE for cont linesearch -0.166E-08
 trial: gam= 0.50927 g(F)=  0.682E-06 g(S)=  0.136E-06 ort = 0.589E-07 (trialstep = 0.142E+01)
 search vector abs. value=  0.150E-05
 bond charge predicted
       N       E                     dE             d eps       ncg     rms          rms(c)
DAV:   1    -0.377378286871E+02    0.29730E-07   -0.63911E-04  9856   0.132E-01    0.553E-03
DAV:   2    -0.377378294429E+02   -0.75576E-06   -0.12492E-05 12456   0.316E-02    0.334E-03
DAV:   3    -0.377378292967E+02    0.14615E-06   -0.90115E-07 12060   0.127E-02    0.179E-03
DAV:   4    -0.377378292467E+02    0.50012E-07   -0.22446E-07 13428   0.879E-03    0.547E-04
DAV:   5    -0.377378292513E+02   -0.46225E-08   -0.73361E-08 10684   0.382E-03
  30 F= -.37737829E+02 E0= -.37737829E+02  d E =-.543773E-06
 trial-energy change:   -0.000001  1 .order   -0.000001   -0.000001    0.000000
 step:   1.3769(harm=  1.3858)  dis= 0.00017  next Energy=   -37.737829 (dE=-0.544E-06)
 bond charge predicted
       N       E                     dE             d eps       ncg     rms          rms(c)
DAV:   1    -0.377378292550E+02   -0.82800E-08   -0.59851E-07 10048   0.418E-03    0.201E-04
DAV:   2    -0.377378292567E+02   -0.17076E-08   -0.94389E-09  5648   0.137E-03
  31 F= -.37737829E+02 E0= -.37737829E+02  d E =-.549138E-06
 curvature:  -1.14 expect dE=-0.404E-06 dE for cont linesearch -0.336E-09
 trial: gam= 0.40907 g(F)=  0.230E-06 g(S)=  0.125E-06 ort = 0.210E-07 (trialstep = 0.141E+01)
 search vector abs. value=  0.622E-06
 bond charge predicted
       N       E                     dE             d eps       ncg     rms          rms(c)
DAV:   1    -0.377378304633E+02   -0.12083E-05   -0.26066E-04 10044   0.109E-01    0.961E-03
DAV:   2    -0.377378298871E+02    0.57626E-06   -0.15420E-05 11296   0.509E-02    0.463E-03
DAV:   3    -0.377378296312E+02    0.25583E-06   -0.11992E-06 14168   0.147E-02    0.219E-03
DAV:   4    -0.377378294913E+02    0.13991E-06   -0.21540E-07 14692   0.629E-03    0.731E-04
DAV:   5    -0.377378294642E+02    0.27106E-07   -0.78400E-08 10736   0.256E-03    0.253E-04
DAV:   6    -0.377378294639E+02    0.35743E-09   -0.10663E-08  5828   0.130E-03
  32 F= -.37737829E+02 E0= -.37737829E+02  d E =-.207153E-06
 trial-energy change:   -0.000000  1 .order   -0.000000   -0.000001   -0.000000
 step:   1.5506(harm=  1.5506)  dis= 0.00016  next Energy=   -37.737830 (dE=-0.281E-06)
 bond charge predicted
       N       E                     dE             d eps       ncg     rms          rms(c)
DAV:   1    -0.377378294877E+02   -0.23448E-07   -0.25422E-06 10108   0.108E-02    0.969E-04
DAV:   2    -0.377378294865E+02    0.11441E-08   -0.14744E-07 11428   0.504E-03    0.458E-04
DAV:   3    -0.377378294752E+02    0.11292E-07   -0.90623E-09  5616   0.147E-03    0.211E-04
DAV:   4    -0.377378294687E+02    0.65829E-08   -0.36691E-09  5168   0.745E-04
  33 F= -.37737829E+02 E0= -.37737829E+02  d E =-.211940E-06
 curvature:  -1.33 expect dE=-0.427E-06 dE for cont linesearch -0.272E-08
 trial: gam= 0.95163 g(F)=  0.136E-06 g(S)=  0.186E-06 ort =-0.357E-07 (trialstep = 0.110E+01)
 search vector abs. value=  0.817E-06
 bond charge predicted
       N       E                     dE             d eps       ncg     rms          rms(c)
DAV:   1    -0.377378309521E+02   -0.14768E-05   -0.20680E-04 10128   0.845E-02    0.593E-03
DAV:   2    -0.377378308926E+02    0.59465E-07   -0.65906E-06 11504   0.318E-02    0.300E-03
DAV:   3    -0.377378308773E+02    0.15323E-07   -0.58643E-07 12280   0.994E-03    0.149E-03
DAV:   4    -0.377378308682E+02    0.90286E-08   -0.11513E-07 12060   0.514E-03    0.347E-04
DAV:   5    -0.377378308756E+02   -0.74037E-08   -0.45029E-08  9424   0.186E-03
  34 F= -.37737831E+02 E0= -.37737831E+02  d E =-.140699E-05
 trial-energy change:   -0.000001  1 .order   -0.000000   -0.000000   -0.000000
 step:   1.1019(harm=  1.2637)  dis= 0.00014  next Energy=   -37.737831 (dE=-0.141E-05)
 bond charge predicted
       N       E                     dE             d eps       ncg     rms          rms(c)
DAV:   1    -0.377378308729E+02   -0.46944E-08   -0.94333E-09  5524   0.114E-03    0.121E-04
DAV:   2    -0.377378308706E+02    0.22987E-08   -0.21980E-09  5280   0.890E-04
  35 F= -.37737831E+02 E0= -.37737831E+02  d E =-.140198E-05
 curvature:  -0.13 expect dE=-0.256E-07 dE for cont linesearch -0.162E-11
 trial: gam= 0.49277 g(F)=  0.129E-06 g(S)=  0.747E-07 ort = 0.325E-08 (trialstep = 0.110E+01)
 search vector abs. value=  0.406E-06
 reached required accuracy - stopping structural energy minimisation
 writing wavefunctions
Thu Jan  6 03:30:26 CST 2022
