Wed Jan  5 23:27:20 CST 2022
 running on   48 total cores
 distrk:  each k-point on   48 cores,    1 groups
 distr:  one band on   24 cores,    2 groups
 using from now: INCAR     
 vasp.5.3.5 31Mar14 (build Jan 11 2016 19:50:55) complex                        
  
 POSCAR found type information on POSCAR  Zn Ga N  O 
 POSCAR found :  4 types and       8 ions
 scaLAPACK will be used

 ----------------------------------------------------------------------------- 
|                                                                             |
|           W    W    AA    RRRRR   N    N  II  N    N   GGGG   !!!           |
|           W    W   A  A   R    R  NN   N  II  NN   N  G    G  !!!           |
|           W    W  A    A  R    R  N N  N  II  N N  N  G       !!!           |
|           W WW W  AAAAAA  RRRRR   N  N N  II  N  N N  G  GGG   !            |
|           WW  WW  A    A  R   R   N   NN  II  N   NN  G    G                |
|           W    W  A    A  R    R  N    N  II  N    N   GGGG   !!!           |
|                                                                             |
|      For optimal performance we recommend to set                            |
|        NCORE= 4 - approx SQRT( number of cores)                             |
|      NCORE specifies how many cores store one orbital (NPAR=cpu/NCORE).     |
|      This setting can  greatly improve the performance of VASP for DFT.     |
|      The default, NPAR=number of cores might be grossly inefficient         |
|      on modern multi-core architectures or massively parallel machines.     |
|      Do your own testing !!!!                                               |
|      Unfortunately you need to use the default for GW and RPA calculations. |
|      (for HF NCORE is supported but not extensively tested yet)             |
|                                                                             |
 ----------------------------------------------------------------------------- 

 LDA part: xc-table for Pade appr. of Perdew
 POSCAR, INCAR and KPOINTS ok, starting setup
 WARNING: small aliasing (wrap around) errors must be expected
 FFT: planning ...
 WAVECAR not read
 entering main loop
       N       E                     dE             d eps       ncg     rms          rms(c)
DAV:   1     0.906573895425E+03    0.90657E+03   -0.42277E+04 10328   0.343E+03
DAV:   2     0.139061726292E+03   -0.76751E+03   -0.73694E+03  9872   0.797E+02
DAV:   3    -0.346065218264E+02   -0.17367E+03   -0.16926E+03 11192   0.271E+02
DAV:   4    -0.490079253532E+02   -0.14401E+02   -0.14237E+02 12196   0.801E+01
DAV:   5    -0.494561251341E+02   -0.44820E+00   -0.44625E+00 12356   0.141E+01    0.172E+01
DAV:   6    -0.413209162212E+02    0.81352E+01   -0.22561E+01 18652   0.814E+01    0.821E+00
DAV:   7    -0.420484758264E+02   -0.72756E+00   -0.91920E+00 10688   0.211E+01    0.565E+00
DAV:   8    -0.419640060728E+02    0.84470E-01   -0.12584E+00 15244   0.107E+01    0.247E+00
DAV:   9    -0.419196845560E+02    0.44322E-01   -0.19641E-01 14172   0.615E+00    0.920E-01
DAV:  10    -0.419126931819E+02    0.69914E-02   -0.69760E-02 13512   0.230E+00    0.372E-01
DAV:  11    -0.419129654841E+02   -0.27230E-03   -0.12377E-02 12760   0.108E+00    0.117E-01
DAV:  12    -0.419132013459E+02   -0.23586E-03   -0.21764E-03 13860   0.664E-01    0.608E-02
DAV:  13    -0.419132630328E+02   -0.61687E-04   -0.48397E-04 10700   0.258E-01    0.392E-02
DAV:  14    -0.419132791559E+02   -0.16123E-04   -0.12798E-04 13188   0.812E-02    0.164E-02
DAV:  15    -0.419132822183E+02   -0.30624E-05   -0.12502E-05 11848   0.348E-02    0.748E-03
DAV:  16    -0.419132830478E+02   -0.82953E-06   -0.57926E-06 12628   0.245E-02    0.328E-03
DAV:  17    -0.419132830420E+02    0.57962E-08   -0.14022E-06 12276   0.128E-02    0.180E-03
DAV:  18    -0.419132830896E+02   -0.47643E-07   -0.33026E-07 13636   0.669E-03    0.935E-04
DAV:  19    -0.419132830451E+02    0.44595E-07   -0.71059E-08 11704   0.303E-03    0.262E-04
DAV:  20    -0.419132830276E+02    0.17426E-07   -0.76394E-09  5952   0.105E-03    0.103E-04
DAV:  21    -0.419132830225E+02    0.51391E-08   -0.41713E-09  5692   0.580E-04
   1 F= -.41913283E+02 E0= -.41912218E+02  d E =-.419133E+02
 curvature:   0.00 expect dE= 0.000E+00 dE for cont linesearch  0.000E+00
 trial: gam= 0.00000 g(F)=  0.455E-04 g(S)=  0.517E-04 ort = 0.000E+00 (trialstep = 0.100E+01)
 search vector abs. value=  0.972E-04
 bond charge predicted
       N       E                     dE             d eps       ncg     rms          rms(c)
DAV:   1    -0.419136114802E+02   -0.32845E-03   -0.15570E-02 13684   0.126E+00    0.136E-01
DAV:   2    -0.419133925911E+02    0.21889E-03   -0.17943E-03 13332   0.632E-01    0.614E-02
DAV:   3    -0.419133471923E+02    0.45399E-04   -0.12445E-04 14248   0.147E-01    0.298E-02
DAV:   4    -0.419133314240E+02    0.15768E-04   -0.25525E-05 15892   0.706E-02    0.513E-03
DAV:   5    -0.419133322488E+02   -0.82477E-06   -0.13569E-05 10612   0.322E-02    0.305E-03
DAV:   6    -0.419133322223E+02    0.26463E-07   -0.81965E-07 12544   0.682E-03    0.203E-03
DAV:   7    -0.419133321668E+02    0.55471E-07   -0.13486E-07 13464   0.709E-03    0.122E-03
DAV:   8    -0.419133321073E+02    0.59547E-07   -0.55916E-08 10472   0.257E-03    0.501E-04
DAV:   9    -0.419133320959E+02    0.11351E-07   -0.24285E-08  9084   0.180E-03    0.142E-04
DAV:  10    -0.419133320962E+02   -0.26012E-09   -0.91878E-09  5512   0.700E-04
   2 F= -.41913332E+02 E0= -.41912280E+02  d E =-.490737E-04
 trial-energy change:   -0.000049  1 .order   -0.000042   -0.000097    0.000014
 step:   0.9076(harm=  0.8736)  dis= 0.00060  next Energy=   -41.913333 (dE=-0.497E-04)
 bond charge predicted
       N       E                     dE             d eps       ncg     rms          rms(c)
DAV:   1    -0.419133355051E+02   -0.34092E-05   -0.13303E-04 13648   0.116E-01    0.126E-02
DAV:   2    -0.419133336499E+02    0.18552E-05   -0.15323E-05 13336   0.582E-02    0.569E-03
DAV:   3    -0.419133331325E+02    0.51740E-06   -0.10612E-06 14320   0.136E-02    0.276E-03
DAV:   4    -0.419133328896E+02    0.24291E-06   -0.21776E-07 15252   0.649E-03    0.476E-04
DAV:   5    -0.419133328780E+02    0.11638E-07   -0.11787E-07 10568   0.301E-03    0.290E-04
DAV:   6    -0.419133328822E+02   -0.42487E-08   -0.57155E-09  5588   0.643E-04
   3 F= -.41913333E+02 E0= -.41912280E+02  d E =-.498598E-04
 curvature:  -0.41 expect dE=-0.832E-05 dE for cont linesearch -0.415E-07
 trial: gam= 0.24369 g(F)=  0.597E-05 g(S)=  0.146E-04 ort =-0.315E-05 (trialstep = 0.982E+00)
 search vector abs. value=  0.248E-04
 bond charge predicted
       N       E                     dE             d eps       ncg     rms          rms(c)
DAV:   1    -0.419133812250E+02   -0.48347E-04   -0.28179E-03 10416   0.414E-01    0.541E-02
DAV:   2    -0.419133589511E+02    0.22274E-04   -0.25427E-04 11928   0.229E-01    0.285E-02
DAV:   3    -0.419133483024E+02    0.10649E-04   -0.21628E-05 13160   0.669E-02    0.130E-02
DAV:   4    -0.419133453086E+02    0.29939E-05   -0.58741E-06 13428   0.338E-02    0.184E-03
DAV:   5    -0.419133454628E+02   -0.15423E-06   -0.20371E-06 10552   0.116E-02    0.114E-03
DAV:   6    -0.419133454811E+02   -0.18288E-07   -0.75119E-08 12476   0.357E-03    0.718E-04
DAV:   7    -0.419133455010E+02   -0.19918E-07   -0.13293E-08  6016   0.265E-03    0.303E-04
DAV:   8    -0.419133455148E+02   -0.13759E-07   -0.59753E-09  5688   0.131E-03    0.813E-05
DAV:   9    -0.419133455147E+02    0.64574E-10   -0.30929E-09  5540   0.652E-04
   4 F= -.41913346E+02 E0= -.41912287E+02  d E =-.126325E-04
 trial-energy change:   -0.000013  1 .order   -0.000012   -0.000019   -0.000006
 step:   1.3353(harm=  1.3721)  dis= 0.00033  next Energy=   -41.913347 (dE=-0.136E-04)
 bond charge predicted
       N       E                     dE             d eps       ncg     rms          rms(c)
DAV:   1    -0.419133513465E+02   -0.58318E-05   -0.36595E-04 10440   0.149E-01    0.195E-02
DAV:   2    -0.419133485046E+02    0.28420E-05   -0.32916E-05 11904   0.824E-02    0.103E-02
DAV:   3    -0.419133470143E+02    0.14902E-05   -0.28014E-06 13176   0.241E-02    0.467E-03
DAV:   4    -0.419133465827E+02    0.43161E-06   -0.76318E-07 13416   0.122E-02    0.661E-04
DAV:   5    -0.419133466029E+02   -0.20136E-07   -0.26506E-07 10548   0.418E-03    0.412E-04
DAV:   6    -0.419133466090E+02   -0.61332E-08   -0.74242E-09  5984   0.125E-03
   5 F= -.41913347E+02 E0= -.41912287E+02  d E =-.137268E-04
 curvature:  -0.85 expect dE=-0.745E-05 dE for cont linesearch -0.409E-08
 trial: gam= 0.34767 g(F)=  0.488E-05 g(S)=  0.386E-05 ort = 0.345E-06 (trialstep = 0.105E+01)
 search vector abs. value=  0.120E-04
 bond charge predicted
       N       E                     dE             d eps       ncg     rms          rms(c)
DAV:   1    -0.419133680016E+02   -0.21399E-04   -0.15470E-03 10484   0.247E-01    0.345E-02
DAV:   2    -0.419133594732E+02    0.85284E-05   -0.71588E-05 11720   0.106E-01    0.207E-02
DAV:   3    -0.419133529524E+02    0.65208E-05   -0.85130E-06 14720   0.444E-02    0.654E-03
DAV:   4    -0.419133524174E+02    0.53497E-06   -0.28168E-06 10892   0.193E-02    0.111E-03
DAV:   5    -0.419133524807E+02   -0.63289E-07   -0.64142E-07 12196   0.722E-03    0.754E-04
DAV:   6    -0.419133524834E+02   -0.26535E-08   -0.55780E-08 10692   0.293E-03
   6 F= -.41913352E+02 E0= -.41912289E+02  d E =-.587436E-05
 trial-energy change:   -0.000006  1 .order   -0.000006   -0.000009   -0.000003
 step:   1.5036(harm=  1.4559)  dis= 0.00023  next Energy=   -41.913353 (dE=-0.642E-05)
 bond charge predicted
       N       E                     dE             d eps       ncg     rms          rms(c)
DAV:   1    -0.419133558822E+02   -0.34015E-05   -0.28505E-04 10508   0.106E-01    0.148E-02
DAV:   2    -0.419133543184E+02    0.15639E-05   -0.13033E-05 11736   0.449E-02    0.887E-03
DAV:   3    -0.419133530465E+02    0.12718E-05   -0.15710E-06 14724   0.187E-02    0.275E-03
DAV:   4    -0.419133529486E+02    0.97891E-07   -0.51097E-07 10832   0.848E-03    0.483E-04
DAV:   5    -0.419133529650E+02   -0.16372E-07   -0.11917E-07 12092   0.329E-03    0.330E-04
DAV:   6    -0.419133529654E+02   -0.40563E-09   -0.10222E-08  5756   0.153E-03
   7 F= -.41913353E+02 E0= -.41912288E+02  d E =-.635641E-05
 curvature:  -0.97 expect dE=-0.342E-05 dE for cont linesearch -0.628E-08
 trial: gam= 0.47455 g(F)=  0.213E-05 g(S)=  0.140E-05 ort =-0.278E-06 (trialstep = 0.114E+01)
 search vector abs. value=  0.596E-05
 bond charge predicted
       N       E                     dE             d eps       ncg     rms          rms(c)
DAV:   1    -0.419133631508E+02   -0.10186E-04   -0.10812E-03 10160   0.241E-01    0.285E-02
DAV:   2    -0.419133579129E+02    0.52379E-05   -0.83159E-05 11636   0.124E-01    0.150E-02
DAV:   3    -0.419133554237E+02    0.24892E-05   -0.71416E-06 13212   0.353E-02    0.704E-03
DAV:   4    -0.419133546851E+02    0.73859E-06   -0.17167E-06 13732   0.194E-02    0.104E-03
DAV:   5    -0.419133547447E+02   -0.59625E-07   -0.67505E-07 10524   0.712E-03    0.668E-04
DAV:   6    -0.419133547297E+02    0.15050E-07   -0.29352E-08  9500   0.225E-03    0.394E-04
DAV:   7    -0.419133547193E+02    0.10317E-07   -0.77488E-09  5740   0.194E-03    0.190E-04
DAV:   8    -0.419133547129E+02    0.64638E-08   -0.37108E-09  5504   0.103E-03
   8 F= -.41913355E+02 E0= -.41912288E+02  d E =-.174748E-05
 trial-energy change:   -0.000002  1 .order   -0.000002   -0.000004    0.000000
 step:   1.0296(harm=  1.0296)  dis= 0.00011  next Energy=   -41.913355 (dE=-0.175E-05)
 bond charge predicted
       N       E                     dE             d eps       ncg     rms          rms(c)
DAV:   1    -0.419133548376E+02   -0.11820E-06   -0.10518E-05 10192   0.239E-02    0.281E-03
DAV:   2    -0.419133548008E+02    0.36796E-07   -0.81305E-07 11668   0.122E-02    0.149E-03
DAV:   3    -0.419133547494E+02    0.51309E-07   -0.67251E-08 11192   0.347E-03    0.696E-04
DAV:   4    -0.419133547293E+02    0.20156E-07   -0.13670E-08  5720   0.192E-03    0.109E-04
DAV:   5    -0.419133547282E+02    0.10446E-08   -0.98897E-09  5176   0.913E-04
   9 F= -.41913355E+02 E0= -.41912288E+02  d E =-.176284E-05
 curvature:  -0.90 expect dE=-0.634E-06 dE for cont linesearch -0.401E-10
 trial: gam= 0.16597 g(F)=  0.536E-06 g(S)=  0.165E-06 ort =-0.163E-07 (trialstep = 0.112E+01)
 search vector abs. value=  0.861E-06
 bond charge predicted
       N       E                     dE             d eps       ncg     rms          rms(c)
DAV:   1    -0.419133552929E+02   -0.56358E-06   -0.21775E-04  9868   0.872E-02    0.663E-03
DAV:   2    -0.419133554975E+02   -0.20458E-06   -0.88141E-06 12024   0.289E-02    0.368E-03
DAV:   3    -0.419133552747E+02    0.22277E-06   -0.60705E-07 12640   0.944E-03    0.177E-03
DAV:   4    -0.419133552157E+02    0.58947E-07   -0.16926E-07 13556   0.554E-03    0.292E-04
DAV:   5    -0.419133552201E+02   -0.43515E-08   -0.57544E-08 10492   0.216E-03
  10 F= -.41913355E+02 E0= -.41912289E+02  d E =-.491840E-06
 trial-energy change:   -0.000000  1 .order   -0.000000   -0.000001   -0.000000
 step:   1.3577(harm=  1.3577)  dis= 0.00011  next Energy=   -41.913355 (dE=-0.474E-06)
 bond charge predicted
       N       E                     dE             d eps       ncg     rms          rms(c)
DAV:   1    -0.419133552513E+02   -0.35592E-07   -0.98823E-06  9904   0.186E-02    0.145E-03
DAV:   2    -0.419133552689E+02   -0.17585E-07   -0.41252E-07 12072   0.622E-03    0.789E-04
DAV:   3    -0.419133552532E+02    0.15755E-07   -0.25922E-08  8764   0.197E-03    0.389E-04
DAV:   4    -0.419133552509E+02    0.22742E-08   -0.78520E-09  5704   0.126E-03
  11 F= -.41913355E+02 E0= -.41912289E+02  d E =-.522636E-06
 curvature:  -0.84 expect dE=-0.221E-06 dE for cont linesearch -0.129E-08
 trial: gam= 0.36244 g(F)=  0.180E-06 g(S)=  0.839E-07 ort = 0.365E-07 (trialstep = 0.117E+01)
 search vector abs. value=  0.404E-06
 bond charge predicted
       N       E                     dE             d eps       ncg     rms          rms(c)
DAV:   1    -0.419133553667E+02   -0.11359E-06   -0.11155E-04 10012   0.738E-02    0.571E-03
DAV:   2    -0.419133553883E+02   -0.21592E-07   -0.72437E-06 11324   0.337E-02    0.263E-03
DAV:   3    -0.419133554054E+02   -0.17058E-07   -0.55958E-07 12392   0.865E-03    0.134E-03
DAV:   4    -0.419133554126E+02   -0.71609E-08   -0.93618E-08 13400   0.440E-03
  12 F= -.41913355E+02 E0= -.41912290E+02  d E =-.161677E-06
 trial-energy change:   -0.000000  1 .order   -0.000000   -0.000000    0.000000
 step:   0.9856(harm=  0.8683)  dis= 0.00005  next Energy=   -41.913355 (dE=-0.170E-06)
 bond charge predicted
       N       E                     dE             d eps       ncg     rms          rms(c)
DAV:   1    -0.419133554329E+02   -0.27516E-07   -0.27336E-06 10168   0.113E-02    0.863E-04
DAV:   2    -0.419133554377E+02   -0.47694E-08   -0.19060E-07 11080   0.548E-03    0.413E-04
DAV:   3    -0.419133554254E+02    0.12272E-07   -0.10313E-08  5412   0.135E-03    0.212E-04
DAV:   4    -0.419133554154E+02    0.99913E-08   -0.39833E-09  5240   0.771E-04
  13 F= -.41913355E+02 E0= -.41912289E+02  d E =-.164539E-06
 curvature:  -0.53 expect dE=-0.530E-07 dE for cont linesearch -0.525E-08
 trial: gam= 0.12479 g(F)=  0.765E-07 g(S)=  0.226E-07 ort = 0.630E-07 (trialstep = 0.113E+01)
 search vector abs. value=  0.121E-06
 bond charge predicted
       N       E                     dE             d eps       ncg     rms          rms(c)
DAV:   1    -0.419133555499E+02   -0.12452E-06   -0.28260E-05 10020   0.330E-02    0.244E-03
DAV:   2    -0.419133555560E+02   -0.61145E-08   -0.11660E-06 11688   0.128E-02    0.141E-03
DAV:   3    -0.419133555087E+02    0.47352E-07   -0.10470E-07 12820   0.401E-03    0.659E-04
DAV:   4    -0.419133554863E+02    0.22429E-07   -0.19690E-08  6896   0.207E-03    0.140E-04
DAV:   5    -0.419133554838E+02    0.24716E-08   -0.12184E-08  5476   0.986E-04
  14 F= -.41913355E+02 E0= -.41912289E+02  d E =-.683749E-07
 trial-energy change:   -0.000000  1 .order   -0.000000   -0.000000   -0.000000
 step:   1.9140(harm=  1.9140)  dis= 0.00004  next Energy=   -41.913356 (dE=-0.102E-06)
 bond charge predicted
       N       E                     dE             d eps       ncg     rms          rms(c)
DAV:   1    -0.419133555286E+02   -0.42372E-07   -0.13545E-05 10032   0.227E-02    0.169E-03
DAV:   2    -0.419133555333E+02   -0.46994E-08   -0.55425E-07 11840   0.879E-03    0.975E-04
DAV:   3    -0.419133555066E+02    0.26781E-07   -0.49120E-08 11052   0.274E-03    0.454E-04
DAV:   4    -0.419133554935E+02    0.13062E-07   -0.93331E-09  5732   0.155E-03    0.100E-04
DAV:   5    -0.419133554917E+02    0.18408E-08   -0.62368E-09  5336   0.751E-04
  15 F= -.41913355E+02 E0= -.41912289E+02  d E =-.762343E-07
 curvature:  -1.08 expect dE=-0.837E-07 dE for cont linesearch -0.261E-09
 trial: gam= 0.85302 g(F)=  0.525E-07 g(S)=  0.246E-07 ort =-0.541E-08 (trialstep = 0.100E+01)
 search vector abs. value=  0.156E-06
 reached required accuracy - stopping structural energy minimisation
 writing wavefunctions
Wed Jan  5 23:30:45 CST 2022
