Wed Jan  5 23:26:36 CST 2022
 running on   48 total cores
 distrk:  each k-point on   48 cores,    1 groups
 distr:  one band on   24 cores,    2 groups
 using from now: INCAR     
 vasp.5.3.5 31Mar14 (build Jan 11 2016 19:50:55) complex                        
  
 POSCAR found type information on POSCAR  Zn Ga N  O 
 POSCAR found :  4 types and       8 ions
 scaLAPACK will be used

 ----------------------------------------------------------------------------- 
|                                                                             |
|           W    W    AA    RRRRR   N    N  II  N    N   GGGG   !!!           |
|           W    W   A  A   R    R  NN   N  II  NN   N  G    G  !!!           |
|           W    W  A    A  R    R  N N  N  II  N N  N  G       !!!           |
|           W WW W  AAAAAA  RRRRR   N  N N  II  N  N N  G  GGG   !            |
|           WW  WW  A    A  R   R   N   NN  II  N   NN  G    G                |
|           W    W  A    A  R    R  N    N  II  N    N   GGGG   !!!           |
|                                                                             |
|      For optimal performance we recommend to set                            |
|        NCORE= 4 - approx SQRT( number of cores)                             |
|      NCORE specifies how many cores store one orbital (NPAR=cpu/NCORE).     |
|      This setting can  greatly improve the performance of VASP for DFT.     |
|      The default, NPAR=number of cores might be grossly inefficient         |
|      on modern multi-core architectures or massively parallel machines.     |
|      Do your own testing !!!!                                               |
|      Unfortunately you need to use the default for GW and RPA calculations. |
|      (for HF NCORE is supported but not extensively tested yet)             |
|                                                                             |
 ----------------------------------------------------------------------------- 

 LDA part: xc-table for Pade appr. of Perdew
 POSCAR, INCAR and KPOINTS ok, starting setup
 WARNING: small aliasing (wrap around) errors must be expected
 FFT: planning ...
 WAVECAR not read
 entering main loop
       N       E                     dE             d eps       ncg     rms          rms(c)
DAV:   1     0.892536755523E+03    0.89254E+03   -0.41092E+04 10224   0.339E+03
DAV:   2     0.134209851864E+03   -0.75833E+03   -0.72799E+03  9920   0.783E+02
DAV:   3    -0.348705683650E+02   -0.16908E+03   -0.16479E+03 11060   0.268E+02
DAV:   4    -0.489079002128E+02   -0.14037E+02   -0.13875E+02 12192   0.789E+01
DAV:   5    -0.493387634463E+02   -0.43086E+00   -0.42921E+00 12384   0.137E+01    0.173E+01
DAV:   6    -0.411805517312E+02    0.81582E+01   -0.23084E+01 18808   0.810E+01    0.823E+00
DAV:   7    -0.419133315964E+02   -0.73278E+00   -0.91522E+00 10584   0.211E+01    0.557E+00
DAV:   8    -0.418216724670E+02    0.91659E-01   -0.12115E+00 15444   0.970E+00    0.250E+00
DAV:   9    -0.417870270335E+02    0.34645E-01   -0.18946E-01 14052   0.483E+00    0.102E+00
DAV:  10    -0.417767773051E+02    0.10250E-01   -0.67584E-02 13728   0.180E+00    0.379E-01
DAV:  11    -0.417771924034E+02   -0.41510E-03   -0.11105E-02 13812   0.908E-01    0.114E-01
DAV:  12    -0.417773984048E+02   -0.20600E-03   -0.20354E-03 12036   0.553E-01    0.436E-02
DAV:  13    -0.417774370596E+02   -0.38655E-04   -0.31972E-04 11656   0.200E-01    0.470E-02
DAV:  14    -0.417774362889E+02    0.77069E-06   -0.70892E-05 13716   0.137E-01    0.209E-02
DAV:  15    -0.417774379755E+02   -0.16866E-05   -0.26944E-05 12912   0.684E-02    0.113E-02
DAV:  16    -0.417774387789E+02   -0.80341E-06   -0.52339E-06 13492   0.338E-02    0.474E-03
DAV:  17    -0.417774389011E+02   -0.12217E-06   -0.10240E-06 13672   0.127E-02    0.178E-03
DAV:  18    -0.417774387677E+02    0.13337E-06   -0.33589E-07 12452   0.640E-03    0.117E-03
DAV:  19    -0.417774388007E+02   -0.32998E-07   -0.43716E-08  9960   0.406E-03    0.327E-04
DAV:  20    -0.417774387902E+02    0.10530E-07   -0.11608E-08  6224   0.171E-03    0.138E-04
DAV:  21    -0.417774387747E+02    0.15465E-07   -0.43523E-09  5896   0.105E-03    0.532E-05
DAV:  22    -0.417774387758E+02   -0.10491E-08   -0.14776E-09  5776   0.497E-04
   1 F= -.41777439E+02 E0= -.41777407E+02  d E =-.417774E+02
 curvature:   0.00 expect dE= 0.000E+00 dE for cont linesearch  0.000E+00
 trial: gam= 0.00000 g(F)=  0.121E-04 g(S)=  0.177E-04 ort = 0.000E+00 (trialstep = 0.100E+01)
 search vector abs. value=  0.298E-04
 bond charge predicted
       N       E                     dE             d eps       ncg     rms          rms(c)
DAV:   1    -0.417776107749E+02   -0.17200E-03   -0.54779E-03 12628   0.928E-01    0.994E-02
DAV:   2    -0.417774762505E+02    0.13452E-03   -0.97314E-04 12432   0.497E-01    0.398E-02
DAV:   3    -0.417774579968E+02    0.18254E-04   -0.80412E-05 15484   0.118E-01    0.182E-02
DAV:   4    -0.417774515107E+02    0.64861E-05   -0.10168E-05 15972   0.499E-02    0.474E-03
DAV:   5    -0.417774514534E+02    0.57259E-07   -0.42895E-06 10828   0.177E-02    0.237E-03
DAV:   6    -0.417774514130E+02    0.40380E-07   -0.28341E-07 12820   0.609E-03    0.156E-03
DAV:   7    -0.417774513519E+02    0.61150E-07   -0.46942E-08 11060   0.740E-03    0.713E-04
DAV:   8    -0.417774513062E+02    0.45718E-07   -0.20447E-08  6892   0.242E-03    0.182E-04
DAV:   9    -0.417774513056E+02    0.60663E-09   -0.70525E-09  5772   0.115E-03
   2 F= -.41777451E+02 E0= -.41777419E+02  d E =-.125298E-04
 trial-energy change:   -0.000013  1 .order   -0.000013   -0.000030    0.000004
 step:   0.8742(harm=  0.8819)  dis= 0.00029  next Energy=   -41.777452 (dE=-0.128E-04)
 bond charge predicted
       N       E                     dE             d eps       ncg     rms          rms(c)
DAV:   1    -0.417774543410E+02   -0.30349E-05   -0.87004E-05 12628   0.117E-01    0.125E-02
DAV:   2    -0.417774522111E+02    0.21300E-05   -0.15485E-05 12448   0.627E-02    0.502E-03
DAV:   3    -0.417774517975E+02    0.41353E-06   -0.12849E-06 15612   0.148E-02    0.229E-03
DAV:   4    -0.417774516156E+02    0.18195E-06   -0.15783E-07 15092   0.623E-03    0.598E-04
DAV:   5    -0.417774515962E+02    0.19384E-07   -0.68671E-08 10432   0.222E-03    0.302E-04
DAV:   6    -0.417774515995E+02   -0.33469E-08   -0.35320E-09  5600   0.678E-04
   3 F= -.41777452E+02 E0= -.41777420E+02  d E =-.128237E-04
 curvature:  -0.44 expect dE=-0.286E-05 dE for cont linesearch -0.135E-08
 trial: gam= 0.20797 g(F)=  0.354E-05 g(S)=  0.297E-05 ort = 0.303E-06 (trialstep = 0.975E+00)
 search vector abs. value=  0.793E-05
 bond charge predicted
       N       E                     dE             d eps       ncg     rms          rms(c)
DAV:   1    -0.417774601133E+02   -0.85171E-05   -0.14934E-03 10392   0.237E-01    0.199E-02
DAV:   2    -0.417774580185E+02    0.20949E-05   -0.53201E-05 11516   0.105E-01    0.103E-02
DAV:   3    -0.417774567388E+02    0.12797E-05   -0.48628E-06 12852   0.283E-02    0.485E-03
DAV:   4    -0.417774561807E+02    0.55806E-06   -0.95467E-07 14240   0.169E-02    0.860E-04
DAV:   5    -0.417774561880E+02   -0.72300E-08   -0.34472E-07 10576   0.552E-03    0.467E-04
DAV:   6    -0.417774561942E+02   -0.62805E-08   -0.19099E-08  7436   0.203E-03
   4 F= -.41777456E+02 E0= -.41777424E+02  d E =-.459469E-05
 trial-energy change:   -0.000005  1 .order   -0.000005   -0.000006   -0.000003
 step:   1.7604(harm=  1.7604)  dis= 0.00044  next Energy=   -41.777457 (dE=-0.579E-05)
 bond charge predicted
       N       E                     dE             d eps       ncg     rms          rms(c)
DAV:   1    -0.417774599317E+02   -0.37438E-05   -0.97013E-04 10400   0.191E-01    0.160E-02
DAV:   2    -0.417774585905E+02    0.13413E-05   -0.34476E-05 11512   0.850E-02    0.830E-03
DAV:   3    -0.417774577214E+02    0.86909E-06   -0.32155E-06 12668   0.238E-02    0.392E-03
DAV:   4    -0.417774573364E+02    0.38496E-06   -0.64419E-07 14380   0.147E-02    0.685E-04
DAV:   5    -0.417774573390E+02   -0.26162E-08   -0.23206E-07 10616   0.480E-03    0.384E-04
DAV:   6    -0.417774573439E+02   -0.48453E-08   -0.14789E-08  6700   0.181E-03
   5 F= -.41777457E+02 E0= -.41777425E+02  d E =-.574434E-05
 curvature:  -1.06 expect dE=-0.344E-05 dE for cont linesearch -0.202E-09
 trial: gam= 0.49667 g(F)=  0.289E-05 g(S)=  0.356E-06 ort = 0.389E-07 (trialstep = 0.113E+01)
 search vector abs. value=  0.524E-05
 bond charge predicted
       N       E                     dE             d eps       ncg     rms          rms(c)
DAV:   1    -0.417774597029E+02   -0.23638E-05   -0.11759E-03 10332   0.197E-01    0.127E-02
DAV:   2    -0.417774605748E+02   -0.87189E-06   -0.28675E-05 13336   0.484E-02    0.762E-03
DAV:   3    -0.417774598749E+02    0.69981E-06   -0.12974E-06 13680   0.147E-02    0.228E-03
DAV:   4    -0.417774598539E+02    0.21065E-07   -0.46717E-07 11192   0.901E-03    0.627E-04
DAV:   5    -0.417774598598E+02   -0.59167E-08   -0.98916E-08 11176   0.342E-03
   6 F= -.41777460E+02 E0= -.41777427E+02  d E =-.251591E-05
 trial-energy change:   -0.000003  1 .order   -0.000002   -0.000004   -0.000001
 step:   1.5488(harm=  1.6600)  dis= 0.00037  next Energy=   -41.777460 (dE=-0.274E-05)
 bond charge predicted
       N       E                     dE             d eps       ncg     rms          rms(c)
DAV:   1    -0.417774600975E+02   -0.24359E-06   -0.15957E-04 10356   0.724E-02    0.471E-03
DAV:   2    -0.417774602122E+02   -0.11476E-06   -0.39174E-06 13360   0.178E-02    0.279E-03
DAV:   3    -0.417774601411E+02    0.71148E-07   -0.16731E-07 13792   0.495E-03    0.824E-04
DAV:   4    -0.417774601432E+02   -0.20796E-08   -0.60393E-08 11152   0.285E-03
   7 F= -.41777460E+02 E0= -.41777427E+02  d E =-.279928E-05
 curvature:  -1.27 expect dE=-0.899E-06 dE for cont linesearch -0.170E-07
 trial: gam= 0.16463 g(F)=  0.665E-06 g(S)=  0.418E-07 ort = 0.264E-06 (trialstep = 0.122E+01)
 search vector abs. value=  0.935E-06
 bond charge predicted
       N       E                     dE             d eps       ncg     rms          rms(c)
DAV:   1    -0.417774600253E+02    0.11582E-06   -0.27737E-04  9864   0.924E-02    0.484E-03
DAV:   2    -0.417774607592E+02   -0.73390E-06   -0.10220E-05 11956   0.247E-02    0.285E-03
DAV:   3    -0.417774606465E+02    0.11265E-06   -0.42374E-07 11760   0.739E-03    0.143E-03
DAV:   4    -0.417774606263E+02    0.20200E-07   -0.15440E-07 16252   0.847E-03    0.292E-04
DAV:   5    -0.417774606292E+02   -0.28954E-08   -0.45729E-08  9636   0.378E-03
   8 F= -.41777461E+02 E0= -.41777428E+02  d E =-.486047E-06
 trial-energy change:   -0.000000  1 .order   -0.000000   -0.000001    0.000000
 step:   1.1817(harm=  1.1719)  dis= 0.00011  next Energy=   -41.777461 (dE=-0.487E-06)
 bond charge predicted
       N       E                     dE             d eps       ncg     rms          rms(c)
DAV:   1    -0.417774606290E+02   -0.27067E-08   -0.20253E-07 10140   0.280E-03    0.163E-04
DAV:   2    -0.417774606288E+02    0.26921E-09   -0.76655E-09  5532   0.150E-03
   9 F= -.41777461E+02 E0= -.41777428E+02  d E =-.485589E-06
 curvature:  -0.69 expect dE=-0.196E-06 dE for cont linesearch -0.303E-09
 trial: gam= 0.43615 g(F)=  0.167E-06 g(S)=  0.115E-06 ort = 0.202E-07 (trialstep = 0.121E+01)
 search vector abs. value=  0.478E-06
 bond charge predicted
       N       E                     dE             d eps       ncg     rms          rms(c)
DAV:   1    -0.417774607141E+02   -0.85055E-07   -0.14791E-04  9856   0.666E-02    0.411E-03
DAV:   2    -0.417774609304E+02   -0.21629E-06   -0.48557E-06 12160   0.175E-02    0.243E-03
DAV:   3    -0.417774608002E+02    0.13013E-06   -0.20821E-07 12240   0.508E-03    0.102E-03
DAV:   4    -0.417774607817E+02    0.18495E-07   -0.87001E-08 11408   0.363E-03    0.219E-04
DAV:   5    -0.417774607819E+02   -0.18326E-09   -0.25699E-08  7304   0.196E-03
  10 F= -.41777461E+02 E0= -.41777428E+02  d E =-.153175E-06
 trial-energy change:   -0.000000  1 .order   -0.000000   -0.000000    0.000000
 step:   1.1194(harm=  1.1194)  dis= 0.00006  next Energy=   -41.777461 (dE=-0.163E-06)
 bond charge predicted
       N       E                     dE             d eps       ncg     rms          rms(c)
DAV:   1    -0.417774607818E+02   -0.69122E-10   -0.78072E-07 10792   0.521E-03    0.295E-04
DAV:   2    -0.417774607826E+02   -0.74442E-09   -0.21982E-08  8024   0.195E-03
  11 F= -.41777461E+02 E0= -.41777428E+02  d E =-.153805E-06
 curvature:  -0.92 expect dE=-0.722E-07 dE for cont linesearch -0.930E-10
 trial: gam= 0.30527 g(F)=  0.572E-07 g(S)=  0.214E-07 ort = 0.695E-08 (trialstep = 0.119E+01)
 search vector abs. value=  0.127E-06
 bond charge predicted
       N       E                     dE             d eps       ncg     rms          rms(c)
DAV:   1    -0.417774607684E+02    0.13430E-07   -0.40077E-05  9904   0.350E-02    0.146E-03
DAV:   2    -0.417774608262E+02   -0.57858E-07   -0.93888E-07 11724   0.763E-03    0.950E-04
DAV:   3    -0.417774608067E+02    0.19504E-07   -0.41256E-08 10756   0.345E-03    0.481E-04
DAV:   4    -0.417774607954E+02    0.11302E-07   -0.12975E-08  6040   0.341E-03    0.151E-04
DAV:   5    -0.417774607946E+02    0.83537E-09   -0.83672E-09  5440   0.161E-03
  12 F= -.41777461E+02 E0= -.41777428E+02  d E =-.120431E-07
 trial-energy change:   -0.000000  1 .order   -0.000000   -0.000000   -0.000000
 step:   1.2146(harm=  1.2146)  dis= 0.00003  next Energy=   -41.777461 (dE=-0.490E-07)
 bond charge predicted
       N       E                     dE             d eps       ncg     rms          rms(c)
DAV:   1    -0.417774607944E+02    0.10309E-08   -0.17050E-08  5264   0.980E-04    0.101E-04
DAV:   2    -0.417774607950E+02   -0.62164E-09   -0.37052E-09  5084   0.145E-03
  13 F= -.41777461E+02 E0= -.41777428E+02  d E =-.124692E-07
 curvature:  -0.96 expect dE=-0.314E-07 dE for cont linesearch -0.711E-08
 trial: gam= 0.00000 g(F)=  0.267E-07 g(S)=  0.605E-08 ort =-0.307E-07 (trialstep = 0.120E+01)
 search vector abs. value=  0.329E-07
 reached required accuracy - stopping structural energy minimisation
 writing wavefunctions
Wed Jan  5 23:29:13 CST 2022
