Wed Jan  5 23:46:16 CST 2022
 running on   48 total cores
 distrk:  each k-point on   48 cores,    1 groups
 distr:  one band on   24 cores,    2 groups
 using from now: INCAR     
 vasp.5.3.5 31Mar14 (build Jan 11 2016 19:50:55) complex                        
  
 POSCAR found type information on POSCAR  Zn Ga N  O 
 POSCAR found :  4 types and       8 ions
 scaLAPACK will be used

 ----------------------------------------------------------------------------- 
|                                                                             |
|           W    W    AA    RRRRR   N    N  II  N    N   GGGG   !!!           |
|           W    W   A  A   R    R  NN   N  II  NN   N  G    G  !!!           |
|           W    W  A    A  R    R  N N  N  II  N N  N  G       !!!           |
|           W WW W  AAAAAA  RRRRR   N  N N  II  N  N N  G  GGG   !            |
|           WW  WW  A    A  R   R   N   NN  II  N   NN  G    G                |
|           W    W  A    A  R    R  N    N  II  N    N   GGGG   !!!           |
|                                                                             |
|      For optimal performance we recommend to set                            |
|        NCORE= 4 - approx SQRT( number of cores)                             |
|      NCORE specifies how many cores store one orbital (NPAR=cpu/NCORE).     |
|      This setting can  greatly improve the performance of VASP for DFT.     |
|      The default, NPAR=number of cores might be grossly inefficient         |
|      on modern multi-core architectures or massively parallel machines.     |
|      Do your own testing !!!!                                               |
|      Unfortunately you need to use the default for GW and RPA calculations. |
|      (for HF NCORE is supported but not extensively tested yet)             |
|                                                                             |
 ----------------------------------------------------------------------------- 

 LDA part: xc-table for Pade appr. of Perdew
 POSCAR, INCAR and KPOINTS ok, starting setup
 WARNING: small aliasing (wrap around) errors must be expected
 FFT: planning ...
 WAVECAR not read
 entering main loop
       N       E                     dE             d eps       ncg     rms          rms(c)
DAV:   1     0.900767161823E+03    0.90077E+03   -0.42250E+04 10240   0.309E+03
DAV:   2     0.148055698187E+03   -0.75271E+03   -0.72182E+03 10032   0.756E+02
DAV:   3    -0.314424903396E+02   -0.17950E+03   -0.17465E+03 11428   0.262E+02
DAV:   4    -0.481590374403E+02   -0.16717E+02   -0.16553E+02 12700   0.821E+01
DAV:   5    -0.486428135071E+02   -0.48378E+00   -0.48167E+00 12536   0.136E+01    0.179E+01
DAV:   6    -0.394713881712E+02    0.91714E+01   -0.26653E+01 18996   0.901E+01    0.789E+00
DAV:   7    -0.402390677809E+02   -0.76768E+00   -0.10203E+01 10592   0.214E+01    0.569E+00
DAV:   8    -0.401530964025E+02    0.85971E-01   -0.17145E+00 15892   0.117E+01    0.253E+00
DAV:   9    -0.400747065089E+02    0.78390E-01   -0.35775E-01 13732   0.700E+00    0.106E+00
DAV:  10    -0.400711534758E+02    0.35530E-02   -0.88132E-02 11332   0.242E+00    0.571E-01
DAV:  11    -0.400727044364E+02   -0.15510E-02   -0.24193E-02 12624   0.133E+00    0.214E-01
DAV:  12    -0.400741987634E+02   -0.14943E-02   -0.39904E-03 10668   0.124E+00    0.684E-02
DAV:  13    -0.400745502650E+02   -0.35150E-03   -0.94597E-04 11160   0.506E-01    0.595E-02
DAV:  14    -0.400746412260E+02   -0.90961E-04   -0.22095E-04 11296   0.228E-01    0.390E-02
DAV:  15    -0.400746882381E+02   -0.47012E-04   -0.17075E-04 12660   0.187E-01    0.178E-02
DAV:  16    -0.400746930727E+02   -0.48346E-05   -0.47232E-05 13136   0.792E-02    0.703E-03
DAV:  17    -0.400746937521E+02   -0.67945E-06   -0.78729E-06 12608   0.349E-02    0.452E-03
DAV:  18    -0.400746939953E+02   -0.24315E-06   -0.27767E-06 12616   0.172E-02    0.196E-03
DAV:  19    -0.400746939766E+02    0.18641E-07   -0.46246E-07 10884   0.936E-03    0.834E-04
DAV:  20    -0.400746939778E+02   -0.11796E-08   -0.87978E-08 11964   0.449E-03
   1 F= -.40074694E+02 E0= -.40074694E+02  d E =-.400747E+02
 curvature:   0.00 expect dE= 0.000E+00 dE for cont linesearch  0.000E+00
 trial: gam= 0.00000 g(F)=  0.629E-05 g(S)=  0.302E-03 ort = 0.000E+00 (trialstep = 0.100E+01)
 search vector abs. value=  0.308E-03
 bond charge predicted
       N       E                     dE             d eps       ncg     rms          rms(c)
DAV:   1    -0.400764979073E+02   -0.18039E-02   -0.37397E-02 13416   0.252E+00    0.304E-01
DAV:   2    -0.400752052564E+02    0.12927E-02   -0.72738E-03 12512   0.140E+00    0.139E-01
DAV:   3    -0.400749211396E+02    0.28412E-03   -0.62749E-04 14232   0.368E-01    0.636E-02
DAV:   4    -0.400748323324E+02    0.88807E-04   -0.14223E-04 14256   0.200E-01    0.133E-02
DAV:   5    -0.400748344465E+02   -0.21141E-05   -0.72417E-05 10688   0.101E-01    0.736E-03
DAV:   6    -0.400748350422E+02   -0.59577E-06   -0.92128E-06 12520   0.400E-02    0.561E-03
DAV:   7    -0.400748350931E+02   -0.50850E-07   -0.86327E-07 12172   0.251E-02    0.392E-03
DAV:   8    -0.400748353638E+02   -0.27068E-06   -0.52003E-07 13228   0.117E-02    0.103E-03
DAV:   9    -0.400748353873E+02   -0.23481E-07   -0.24449E-07 12376   0.718E-03    0.386E-04
DAV:  10    -0.400748353831E+02    0.41537E-08   -0.46772E-08 10284   0.224E-03
   2 F= -.40074835E+02 E0= -.40074835E+02  d E =-.141405E-03
 trial-energy change:   -0.000141  1 .order   -0.000137   -0.000308    0.000034
 step:   0.9063(harm=  0.8996)  dis= 0.00019  next Energy=   -40.074837 (dE=-0.143E-03)
 bond charge predicted
       N       E                     dE             d eps       ncg     rms          rms(c)
DAV:   1    -0.400748511820E+02   -0.15795E-04   -0.32666E-04 13416   0.235E-01    0.284E-02
DAV:   2    -0.400748399113E+02    0.11271E-04   -0.63788E-05 12512   0.132E-01    0.131E-02
DAV:   3    -0.400748377079E+02    0.22034E-05   -0.54999E-06 14224   0.350E-02    0.596E-03
DAV:   4    -0.400748371087E+02    0.59915E-06   -0.12511E-06 14180   0.191E-02    0.124E-03
DAV:   5    -0.400748371700E+02   -0.61330E-07   -0.63307E-07 10660   0.961E-03    0.670E-04
DAV:   6    -0.400748371648E+02    0.52319E-08   -0.82406E-08 10864   0.381E-03
   3 F= -.40074837E+02 E0= -.40074837E+02  d E =-.143187E-03
 curvature:  -0.45 expect dE=-0.614E-04 dE for cont linesearch -0.449E-09
 trial: gam= 0.44325 g(F)=  0.730E-04 g(S)=  0.641E-04 ort = 0.556E-06 (trialstep = 0.981E+00)
 search vector abs. value=  0.198E-03
 bond charge predicted
       N       E                     dE             d eps       ncg     rms          rms(c)
DAV:   1    -0.400751417525E+02   -0.30458E-03   -0.24152E-02  9892   0.946E-01    0.124E-01
DAV:   2    -0.400750248335E+02    0.11692E-03   -0.11543E-03 12016   0.508E-01    0.730E-02
DAV:   3    -0.400749333234E+02    0.91510E-04   -0.22335E-04 13576   0.393E-01    0.249E-02
DAV:   4    -0.400749270294E+02    0.62940E-05   -0.65545E-05 11908   0.193E-01    0.486E-03
DAV:   5    -0.400749298598E+02   -0.28304E-05   -0.31571E-05 12180   0.401E-02    0.405E-03
DAV:   6    -0.400749297451E+02    0.11475E-06   -0.95889E-07 15848   0.215E-02    0.272E-03
DAV:   7    -0.400749296705E+02    0.74522E-07   -0.50438E-07 13328   0.207E-02    0.879E-04
DAV:   8    -0.400749296724E+02   -0.18113E-08   -0.29174E-07 13204   0.823E-03    0.406E-04
DAV:   9    -0.400749296734E+02   -0.10014E-08   -0.41643E-08  9280   0.284E-03
   4 F= -.40074930E+02 E0= -.40074930E+02  d E =-.925086E-04
 trial-energy change:   -0.000093  1 .order   -0.000093   -0.000135   -0.000051
 step:   1.6245(harm=  1.5831)  dis= 0.00113  next Energy=   -40.074946 (dE=-0.109E-03)
 bond charge predicted
       N       E                     dE             d eps       ncg     rms          rms(c)
DAV:   1    -0.400750360980E+02   -0.10643E-03   -0.10379E-02  9892   0.620E-01    0.815E-02
DAV:   2    -0.400749859703E+02    0.50128E-04   -0.49551E-04 12000   0.332E-01    0.478E-02
DAV:   3    -0.400749468326E+02    0.39138E-04   -0.95244E-05 13584   0.256E-01    0.163E-02
DAV:   4    -0.400749441393E+02    0.26933E-05   -0.27914E-05 11848   0.126E-01    0.317E-03
DAV:   5    -0.400749453504E+02   -0.12110E-05   -0.13615E-05 12164   0.266E-02    0.268E-03
DAV:   6    -0.400749453018E+02    0.48523E-07   -0.42535E-07 15620   0.145E-02    0.179E-03
DAV:   7    -0.400749452599E+02    0.41945E-07   -0.22069E-07 13296   0.135E-02    0.587E-04
DAV:   8    -0.400749452588E+02    0.11282E-08   -0.12279E-07 12368   0.547E-03    0.262E-04
DAV:   9    -0.400749452590E+02   -0.25420E-09   -0.17401E-08  6132   0.203E-03
   5 F= -.40074945E+02 E0= -.40074945E+02  d E =-.108094E-03
 curvature:  -1.14 expect dE=-0.938E-04 dE for cont linesearch -0.591E-07
 trial: gam= 0.61729 g(F)=  0.769E-04 g(S)=  0.568E-05 ort =-0.321E-05 (trialstep = 0.111E+01)
 search vector abs. value=  0.154E-03
 bond charge predicted
       N       E                     dE             d eps       ncg     rms          rms(c)
DAV:   1    -0.400751297362E+02   -0.18448E-03   -0.28685E-02  9860   0.107E+00    0.116E-01
DAV:   2    -0.400750411862E+02    0.88550E-04   -0.14843E-03 11804   0.492E-01    0.657E-02
DAV:   3    -0.400749921300E+02    0.49056E-04   -0.14915E-04 13668   0.179E-01    0.297E-02
DAV:   4    -0.400749775762E+02    0.14554E-04   -0.38025E-05 13100   0.966E-02    0.588E-03
DAV:   5    -0.400749784465E+02   -0.87033E-06   -0.13924E-05 10692   0.424E-02    0.328E-03
DAV:   6    -0.400749785569E+02   -0.11038E-06   -0.20152E-06 12364   0.222E-02    0.247E-03
DAV:   7    -0.400749785231E+02    0.33805E-07   -0.26466E-07 11772   0.116E-02    0.141E-03
DAV:   8    -0.400749784804E+02    0.42733E-07   -0.11028E-07 12312   0.394E-03    0.286E-04
DAV:   9    -0.400749784799E+02    0.47930E-09   -0.29298E-08  8388   0.216E-03
   6 F= -.40074978E+02 E0= -.40074978E+02  d E =-.332209E-04
 trial-energy change:   -0.000033  1 .order   -0.000034   -0.000089    0.000021
 step:   0.8901(harm=  0.9012)  dis= 0.00060  next Energy=   -40.074981 (dE=-0.353E-04)
 bond charge predicted
       N       E                     dE             d eps       ncg     rms          rms(c)
DAV:   1    -0.400749866296E+02   -0.81492E-05   -0.11255E-03  9860   0.212E-01    0.231E-02
DAV:   2    -0.400749832176E+02    0.34119E-05   -0.58722E-05 11796   0.982E-02    0.130E-02
DAV:   3    -0.400749810330E+02    0.21847E-05   -0.58886E-06 13472   0.366E-02    0.590E-03
DAV:   4    -0.400749803662E+02    0.66673E-06   -0.15515E-06 13064   0.198E-02    0.119E-03
DAV:   5    -0.400749803780E+02   -0.11801E-07   -0.54855E-07 10684   0.886E-03    0.651E-04
DAV:   6    -0.400749803895E+02   -0.11488E-07   -0.86762E-08 11144   0.472E-03    0.493E-04
DAV:   7    -0.400749803981E+02   -0.85574E-08   -0.10414E-08  5960   0.236E-03
   7 F= -.40074980E+02 E0= -.40074980E+02  d E =-.351391E-04
 curvature:  -0.86 expect dE=-0.225E-04 dE for cont linesearch -0.606E-08
 trial: gam= 0.27642 g(F)=  0.220E-04 g(S)=  0.423E-05 ort = 0.104E-05 (trialstep = 0.107E+01)
 search vector abs. value=  0.386E-04
 bond charge predicted
       N       E                     dE             d eps       ncg     rms          rms(c)
DAV:   1    -0.400750045909E+02   -0.24201E-04   -0.78471E-03  9856   0.489E-01    0.382E-02
DAV:   2    -0.400750086244E+02   -0.40335E-05   -0.24601E-04 11508   0.170E-01    0.228E-02
DAV:   3    -0.400750024043E+02    0.62201E-05   -0.23901E-05 11976   0.789E-02    0.102E-02
DAV:   4    -0.400750006861E+02    0.17182E-05   -0.61317E-06 12848   0.585E-02    0.163E-03
DAV:   5    -0.400750009261E+02   -0.24001E-06   -0.26005E-06 11432   0.223E-02    0.123E-03
DAV:   6    -0.400750009779E+02   -0.51766E-07   -0.57957E-07 12336   0.116E-02    0.832E-04
DAV:   7    -0.400750010014E+02   -0.23542E-07   -0.10577E-07 10556   0.684E-03    0.334E-04
DAV:   8    -0.400750010163E+02   -0.14892E-07   -0.39484E-08  7512   0.298E-03    0.923E-05
DAV:   9    -0.400750010185E+02   -0.21982E-08   -0.17339E-08  7044   0.131E-03
   8 F= -.40075001E+02 E0= -.40075001E+02  d E =-.206204E-04
 trial-energy change:   -0.000021  1 .order   -0.000021   -0.000028   -0.000013
 step:   1.8780(harm=  1.9423)  dis= 0.00075  next Energy=   -40.075006 (dE=-0.255E-04)
 bond charge predicted
       N       E                     dE             d eps       ncg     rms          rms(c)
DAV:   1    -0.400750082342E+02   -0.72179E-05   -0.45537E-03  9856   0.372E-01    0.291E-02
DAV:   2    -0.400750105777E+02   -0.23436E-05   -0.14279E-04 11508   0.130E-01    0.174E-02
DAV:   3    -0.400750069221E+02    0.36557E-05   -0.13907E-05 11976   0.599E-02    0.779E-03
DAV:   4    -0.400750059080E+02    0.10140E-05   -0.35610E-06 12856   0.448E-02    0.124E-03
DAV:   5    -0.400750060503E+02   -0.14233E-06   -0.15104E-06 11448   0.171E-02    0.938E-04
DAV:   6    -0.400750060821E+02   -0.31800E-07   -0.33779E-07 11268   0.880E-03    0.635E-04
DAV:   7    -0.400750060992E+02   -0.17071E-07   -0.60210E-08  9128   0.531E-03    0.252E-04
DAV:   8    -0.400750061102E+02   -0.10959E-07   -0.24703E-08  7220   0.225E-03    0.736E-05
DAV:   9    -0.400750061111E+02   -0.91904E-09   -0.89629E-09  5532   0.989E-04
   9 F= -.40075006E+02 E0= -.40075006E+02  d E =-.257130E-04
 curvature:  -1.41 expect dE=-0.282E-04 dE for cont linesearch -0.299E-07
 trial: gam= 0.75058 g(F)=  0.145E-04 g(S)=  0.551E-05 ort = 0.906E-06 (trialstep = 0.110E+01)
 search vector abs. value=  0.431E-04
 bond charge predicted
       N       E                     dE             d eps       ncg     rms          rms(c)
DAV:   1    -0.400750532712E+02   -0.47161E-04   -0.86978E-03  9856   0.561E-01    0.560E-02
DAV:   2    -0.400750394998E+02    0.13771E-04   -0.37489E-04 11600   0.243E-01    0.310E-02
DAV:   3    -0.400750259577E+02    0.13542E-04   -0.42508E-05 13456   0.109E-01    0.137E-02
DAV:   4    -0.400750234304E+02    0.25273E-05   -0.11941E-05 12376   0.746E-02    0.289E-03
DAV:   5    -0.400750237061E+02   -0.27575E-06   -0.43194E-06 10764   0.296E-02    0.167E-03
DAV:   6    -0.400750237568E+02   -0.50639E-07   -0.84306E-07 12120   0.150E-02    0.115E-03
DAV:   7    -0.400750237547E+02    0.20523E-08   -0.19940E-07 12312   0.813E-03    0.644E-04
DAV:   8    -0.400750237428E+02    0.11899E-07   -0.60304E-08  9588   0.500E-03    0.205E-04
DAV:   9    -0.400750237407E+02    0.21237E-08   -0.24586E-08  7188   0.211E-03
  10 F= -.40075024E+02 E0= -.40075024E+02  d E =-.176296E-04
 trial-energy change:   -0.000018  1 .order   -0.000018   -0.000023   -0.000012
 step:   2.4331(harm=  2.4331)  dis= 0.00153  next Energy=   -40.075031 (dE=-0.252E-04)
 bond charge predicted
       N       E                     dE             d eps       ncg     rms          rms(c)
DAV:   1    -0.400750750429E+02   -0.51300E-04   -0.12826E-02  9856   0.681E-01    0.680E-02
DAV:   2    -0.400750547374E+02    0.20306E-04   -0.55298E-04 11600   0.295E-01    0.376E-02
DAV:   3    -0.400750346770E+02    0.20060E-04   -0.62686E-05 13444   0.132E-01    0.167E-02
DAV:   4    -0.400750309239E+02    0.37531E-05   -0.17647E-05 12388   0.906E-02    0.352E-03
DAV:   5    -0.400750313278E+02   -0.40390E-06   -0.63558E-06 10764   0.360E-02    0.203E-03
DAV:   6    -0.400750314043E+02   -0.76464E-07   -0.12450E-06 12112   0.182E-02    0.139E-03
DAV:   7    -0.400750314058E+02   -0.14566E-08   -0.29536E-07 12420   0.990E-03    0.782E-04
DAV:   8    -0.400750313925E+02    0.13257E-07   -0.88681E-08  9924   0.607E-03    0.250E-04
DAV:   9    -0.400750313907E+02    0.18531E-08   -0.38598E-08  8484   0.255E-03
  11 F= -.40075031E+02 E0= -.40075031E+02  d E =-.252796E-04
 curvature:  -2.53 expect dE=-0.694E-04 dE for cont linesearch -0.782E-10
 trial: gam= 1.42665 g(F)=  0.224E-04 g(S)=  0.504E-05 ort = 0.365E-07 (trialstep = 0.511E+00)
 search vector abs. value=  0.115E-03
 bond charge predicted
       N       E                     dE             d eps       ncg     rms          rms(c)
DAV:   1    -0.400750520364E+02   -0.20644E-04   -0.51758E-03  9856   0.404E-01    0.369E-02
DAV:   2    -0.400750497927E+02    0.22437E-05   -0.16883E-04 11456   0.125E-01    0.214E-02
DAV:   3    -0.400750428871E+02    0.69056E-05   -0.13691E-05 13464   0.631E-02    0.771E-03
DAV:   4    -0.400750421712E+02    0.71594E-06   -0.51294E-06 11924   0.403E-02    0.152E-03
DAV:   5    -0.400750422705E+02   -0.99305E-07   -0.14354E-06 11312   0.182E-02    0.113E-03
DAV:   6    -0.400750422853E+02   -0.14787E-07   -0.27989E-07 11432   0.943E-03    0.774E-04
DAV:   7    -0.400750422806E+02    0.46307E-08   -0.74027E-08  9712   0.394E-03
  12 F= -.40075042E+02 E0= -.40075042E+02  d E =-.108900E-04
 trial-energy change:   -0.000011  1 .order   -0.000011   -0.000014   -0.000008
 step:   1.0773(harm=  1.1268)  dis= 0.00117  next Energy=   -40.075047 (dE=-0.152E-04)
 bond charge predicted
       N       E                     dE             d eps       ncg     rms          rms(c)
DAV:   1    -0.400750592266E+02   -0.16941E-04   -0.63643E-03  9856   0.448E-01    0.410E-02
DAV:   2    -0.400750564009E+02    0.28258E-05   -0.20719E-04 11448   0.138E-01    0.238E-02
DAV:   3    -0.400750478599E+02    0.85409E-05   -0.16928E-05 13720   0.664E-02    0.848E-03
DAV:   4    -0.400750469841E+02    0.87589E-06   -0.60491E-06 11868   0.418E-02    0.168E-03
DAV:   5    -0.400750470971E+02   -0.11305E-06   -0.16293E-06 11344   0.191E-02    0.125E-03
DAV:   6    -0.400750471116E+02   -0.14464E-07   -0.29737E-07 11696   0.993E-03    0.849E-04
DAV:   7    -0.400750471063E+02    0.52983E-08   -0.76858E-08 10120   0.412E-03
  13 F= -.40075047E+02 E0= -.40075047E+02  d E =-.157156E-04
 curvature:  -2.35 expect dE=-0.248E-04 dE for cont linesearch -0.514E-07
 trial: gam= 0.30630 g(F)=  0.824E-05 g(S)=  0.231E-05 ort = 0.159E-05 (trialstep = 0.624E+00)
 search vector abs. value=  0.223E-04
 bond charge predicted
       N       E                     dE             d eps       ncg     rms          rms(c)
DAV:   1    -0.400750561745E+02   -0.90629E-05   -0.14196E-03  9884   0.217E-01    0.216E-02
DAV:   2    -0.400750544326E+02    0.17418E-05   -0.43845E-05 11696   0.820E-02    0.128E-02
DAV:   3    -0.400750517632E+02    0.26694E-05   -0.70753E-06 12616   0.627E-02    0.451E-03
DAV:   4    -0.400750515879E+02    0.17525E-06   -0.19927E-06 11976   0.375E-02    0.856E-04
DAV:   5    -0.400750516846E+02   -0.96637E-07   -0.10226E-06 12488   0.746E-03    0.744E-04
DAV:   6    -0.400750516830E+02    0.15789E-08   -0.31076E-08  8192   0.448E-03
  14 F= -.40075052E+02 E0= -.40075052E+02  d E =-.457673E-05
 trial-energy change:   -0.000005  1 .order   -0.000006   -0.000007   -0.000005
 step:   2.1546(harm=  2.1546)  dis= 0.00067  next Energy=   -40.075059 (dE=-0.119E-04)
 bond charge predicted
       N       E                     dE             d eps       ncg     rms          rms(c)
DAV:   1    -0.400750850174E+02   -0.33333E-04   -0.85354E-03  9884   0.532E-01    0.529E-02
DAV:   2    -0.400750745831E+02    0.10434E-04   -0.26421E-04 11708   0.204E-01    0.313E-02
DAV:   3    -0.400750587177E+02    0.15865E-04   -0.43992E-05 12744   0.161E-01    0.109E-02
DAV:   4    -0.400750577284E+02    0.98928E-06   -0.12063E-05 12012   0.940E-02    0.207E-03
DAV:   5    -0.400750583501E+02   -0.62169E-06   -0.65591E-06 12740   0.178E-02    0.183E-03
DAV:   6    -0.400750583289E+02    0.21140E-07   -0.13522E-07 15248   0.867E-03    0.990E-04
DAV:   7    -0.400750583314E+02   -0.24397E-08   -0.59127E-08 12716   0.552E-03
  15 F= -.40075058E+02 E0= -.40075058E+02  d E =-.112251E-04
 curvature:  -2.18 expect dE=-0.244E-04 dE for cont linesearch -0.520E-07
 trial: gam= 1.08782 g(F)=  0.105E-04 g(S)=  0.674E-06 ort = 0.730E-06 (trialstep = 0.530E+00)
 search vector abs. value=  0.392E-04
 bond charge predicted
       N       E                     dE             d eps       ncg     rms          rms(c)
DAV:   1    -0.400750671196E+02   -0.87907E-05   -0.18057E-03  9952   0.243E-01    0.229E-02
DAV:   2    -0.400750656887E+02    0.14309E-05   -0.57265E-05 11812   0.818E-02    0.138E-02
DAV:   3    -0.400750626348E+02    0.30539E-05   -0.76053E-06 13388   0.633E-02    0.370E-03
DAV:   4    -0.400750625529E+02    0.81904E-07   -0.24799E-06 11728   0.369E-02    0.837E-04
DAV:   5    -0.400750626801E+02   -0.12724E-06   -0.13563E-06 12380   0.981E-03    0.837E-04
DAV:   6    -0.400750626759E+02    0.42110E-08   -0.52243E-08 10332   0.599E-03
  16 F= -.40075063E+02 E0= -.40075063E+02  d E =-.434457E-05
 trial-energy change:   -0.000004  1 .order   -0.000005   -0.000006   -0.000003
 step:   1.0593(harm=  1.0593)  dis= 0.00051  next Energy=   -40.075065 (dE=-0.635E-05)
 bond charge predicted
       N       E                     dE             d eps       ncg     rms          rms(c)
DAV:   1    -0.400750707568E+02   -0.80766E-05   -0.18054E-03  9952   0.243E-01    0.229E-02
DAV:   2    -0.400750692872E+02    0.14696E-05   -0.57069E-05 11776   0.789E-02    0.138E-02
DAV:   3    -0.400750661857E+02    0.31016E-05   -0.71787E-06 13268   0.574E-02    0.360E-03
DAV:   4    -0.400750661158E+02    0.69845E-07   -0.23867E-06 11528   0.353E-02    0.841E-04
DAV:   5    -0.400750662300E+02   -0.11413E-06   -0.12292E-06 12044   0.102E-02    0.826E-04
DAV:   6    -0.400750662286E+02    0.13511E-08   -0.88776E-08 10260   0.693E-03
  17 F= -.40075066E+02 E0= -.40075066E+02  d E =-.789723E-05
 curvature:  -1.73 expect dE=-0.104E-04 dE for cont linesearch -0.110E-07
 trial: gam= 0.52983 g(F)=  0.577E-05 g(S)=  0.255E-06 ort = 0.499E-06 (trialstep = 0.636E+00)
 search vector abs. value=  0.176E-04
 bond charge predicted
       N       E                     dE             d eps       ncg     rms          rms(c)
DAV:   1    -0.400750699329E+02   -0.37029E-05   -0.12714E-03  9884   0.208E-01    0.165E-02
DAV:   2    -0.400750706185E+02   -0.68561E-06   -0.51246E-05 11816   0.746E-02    0.912E-03
DAV:   3    -0.400750698588E+02    0.75964E-06   -0.42794E-06 12708   0.270E-02    0.437E-03
DAV:   4    -0.400750696063E+02    0.25255E-06   -0.11910E-06 12628   0.177E-02    0.765E-04
DAV:   5    -0.400750696287E+02   -0.22379E-07   -0.34843E-07 11720   0.882E-03    0.470E-04
DAV:   6    -0.400750696284E+02    0.30332E-09   -0.64409E-08  8068   0.322E-03
  18 F= -.40075070E+02 E0= -.40075070E+02  d E =-.339975E-05
 trial-energy change:   -0.000003  1 .order   -0.000003   -0.000004   -0.000002
 step:   1.0825(harm=  1.6190)  dis= 0.00040  next Energy=   -40.075071 (dE=-0.432E-05)
 bond charge predicted
       N       E                     dE             d eps       ncg     rms          rms(c)
DAV:   1    -0.400750724345E+02   -0.28058E-05   -0.62838E-04  9892   0.147E-01    0.116E-02
DAV:   2    -0.400750727797E+02   -0.34524E-06   -0.25378E-05 11836   0.531E-02    0.641E-03
DAV:   3    -0.400750724296E+02    0.35010E-06   -0.21242E-06 12744   0.217E-02    0.308E-03
DAV:   4    -0.400750723167E+02    0.11290E-06   -0.65124E-07 12692   0.140E-02    0.537E-04
DAV:   5    -0.400750723297E+02   -0.12931E-07   -0.20075E-07 11212   0.659E-03    0.337E-04
DAV:   6    -0.400750723297E+02   -0.34561E-10   -0.44549E-08  7828   0.284E-03
  19 F= -.40075072E+02 E0= -.40075072E+02  d E =-.610109E-05
 curvature:  -1.59 expect dE=-0.338E-05 dE for cont linesearch -0.397E-06
 ZBRENT: increasing intervall
 opt :   1.9760  next Energy=   -40.075073 (dE=-0.643E-05)
 bond charge predicted
       N       E                     dE             d eps       ncg     rms          rms(c)
DAV:   1    -0.400750735656E+02   -0.12360E-05   -0.25107E-03  9888   0.293E-01    0.231E-02
DAV:   2    -0.400750749966E+02   -0.14310E-05   -0.10126E-04 11828   0.105E-01    0.128E-02
DAV:   3    -0.400750734032E+02    0.15934E-05   -0.84154E-06 12868   0.400E-02    0.614E-03
DAV:   4    -0.400750728902E+02    0.51300E-06   -0.24372E-06 12680   0.262E-02    0.108E-03
DAV:   5    -0.400750729390E+02   -0.48806E-07   -0.72618E-07 11536   0.127E-02    0.660E-04
DAV:   6    -0.400750729431E+02   -0.41282E-08   -0.14716E-07  9764   0.490E-03    0.467E-04
DAV:   7    -0.400750729315E+02    0.11637E-07   -0.36615E-08  7948   0.417E-03    0.162E-04
DAV:   8    -0.400750729269E+02    0.45802E-08   -0.11421E-08  6348   0.174E-03
  20 F= -.40075073E+02 E0= -.40075073E+02  d E =-.669829E-05
 curvature:  -1.33 expect dE=-0.813E-05 dE for cont linesearch -0.112E-06
 ZBRENT: bracketing found
 ZBRENT: interpolating
 opt :   1.6483  next Energy=   -40.075073 (dE=-0.690E-05)
 bond charge predicted
       N       E                     dE             d eps       ncg     rms          rms(c)
DAV:   1    -0.400750732298E+02   -0.29834E-06   -0.33688E-04  9888   0.107E-01    0.848E-03
DAV:   2    -0.400750734581E+02   -0.22829E-06   -0.13605E-05 11816   0.384E-02    0.470E-03
DAV:   3    -0.400750731326E+02    0.32549E-06   -0.11235E-06 12708   0.137E-02    0.225E-03
DAV:   4    -0.400750730369E+02    0.95721E-07   -0.30984E-07 12600   0.886E-03    0.392E-04
DAV:   5    -0.400750730440E+02   -0.71332E-08   -0.87991E-08 10960   0.445E-03
  21 F= -.40075073E+02 E0= -.40075073E+02  d E =-.681542E-05
 curvature:  -2.37 expect dE=-0.911E-05 dE for cont linesearch -0.223E-07
 trial: gam= 0.70391 g(F)=  0.206E-05 g(S)=  0.179E-05 ort = 0.407E-06 (trialstep = 0.838E+00)
 search vector abs. value=  0.131E-04
 bond charge predicted
       N       E                     dE             d eps       ncg     rms          rms(c)
DAV:   1    -0.400750788200E+02   -0.57831E-05   -0.15560E-03  9940   0.246E-01    0.225E-02
DAV:   2    -0.400750778217E+02    0.99827E-06   -0.74120E-05 11240   0.105E-01    0.123E-02
DAV:   3    -0.400750760577E+02    0.17640E-05   -0.68773E-06 12160   0.433E-02    0.595E-03
DAV:   4    -0.400750753917E+02    0.66596E-06   -0.19992E-06 13140   0.280E-02    0.103E-03
DAV:   5    -0.400750754323E+02   -0.40633E-07   -0.80871E-07 10692   0.129E-02    0.603E-04
DAV:   6    -0.400750754532E+02   -0.20863E-07   -0.21167E-07 10360   0.629E-03    0.440E-04
DAV:   7    -0.400750754629E+02   -0.97002E-08   -0.43983E-08  7640   0.405E-03
  22 F= -.40075075E+02 E0= -.40075075E+02  d E =-.241887E-05
 trial-energy change:   -0.000002  1 .order   -0.000002   -0.000003   -0.000001
 step:   1.3980(harm=  1.3980)  dis= 0.00036  next Energy=   -40.075076 (dE=-0.289E-05)
 bond charge predicted
       N       E                     dE             d eps       ncg     rms          rms(c)
DAV:   1    -0.400750776471E+02   -0.21939E-05   -0.69553E-04  9940   0.164E-01    0.150E-02
DAV:   2    -0.400750772308E+02    0.41631E-06   -0.33120E-05 11240   0.698E-02    0.819E-03
DAV:   3    -0.400750764015E+02    0.82935E-06   -0.30873E-06 12168   0.286E-02    0.397E-03
DAV:   4    -0.400750760854E+02    0.31605E-06   -0.90348E-07 13136   0.189E-02    0.697E-04
DAV:   5    -0.400750760990E+02   -0.13602E-07   -0.36078E-07 10692   0.876E-03    0.403E-04
DAV:   6    -0.400750761094E+02   -0.10334E-07   -0.96925E-08  7884   0.423E-03    0.294E-04
DAV:   7    -0.400750761157E+02   -0.63214E-08   -0.21680E-08  7496   0.295E-03
  23 F= -.40075076E+02 E0= -.40075076E+02  d E =-.307167E-05
 curvature:  -2.22 expect dE=-0.529E-05 dE for cont linesearch -0.202E-07
 trial: gam= 0.49311 g(F)=  0.158E-05 g(S)=  0.808E-06 ort = 0.345E-06 (trialstep = 0.950E+00)
 search vector abs. value=  0.591E-05
 bond charge predicted
       N       E                     dE             d eps       ncg     rms          rms(c)
DAV:   1    -0.400750756910E+02    0.41833E-06   -0.84110E-04  9856   0.169E-01    0.169E-02
DAV:   2    -0.400750744835E+02    0.12075E-05   -0.28980E-05 11596   0.791E-02    0.102E-02
DAV:   3    -0.400750728108E+02    0.16728E-05   -0.54239E-06 12788   0.637E-02    0.373E-03
DAV:   4    -0.400750726504E+02    0.16035E-06   -0.15050E-06 12232   0.296E-02    0.730E-04
DAV:   5    -0.400750727193E+02   -0.68876E-07   -0.72996E-07 12524   0.613E-03    0.555E-04
DAV:   6    -0.400750727184E+02    0.92132E-09   -0.28181E-08  8268   0.439E-03
  24 F= -.40075073E+02 E0= -.40075073E+02  d E =0.339732E-05
 trial-energy change:    0.000003  1 .order   -0.000002   -0.000002   -0.000001
 step:   1.4766(harm=  1.4766)  dis= 0.00021  next Energy=   -40.075078 (dE=-0.189E-05)
 bond charge predicted
       N       E                     dE             d eps       ncg     rms          rms(c)
DAV:   1    -0.400750739870E+02   -0.12677E-05   -0.25877E-04  9856   0.930E-02    0.939E-03
DAV:   2    -0.400750735927E+02    0.39430E-06   -0.86292E-06 11516   0.407E-02    0.565E-03
DAV:   3    -0.400750730420E+02    0.55065E-06   -0.16028E-06 12964   0.329E-02    0.194E-03
DAV:   4    -0.400750729969E+02    0.45115E-07   -0.42641E-07 12056   0.166E-02    0.387E-04
DAV:   5    -0.400750730190E+02   -0.22078E-07   -0.22067E-07 12384   0.328E-03    0.311E-04
DAV:   6    -0.400750730186E+02    0.42110E-09   -0.54704E-09  5704   0.206E-03
  25 F= -.40075073E+02 E0= -.40075073E+02  d E =0.309711E-05
 curvature:  -1.71 expect dE=-0.105E-05 dE for cont linesearch -0.201E-08
 trial: gam= 0.35795 g(F)=  0.444E-06 g(S)=  0.172E-06 ort = 0.834E-07 (trialstep = 0.106E+01)
 search vector abs. value=  0.143E-05
 bond charge predicted
       N       E                     dE             d eps       ncg     rms          rms(c)
DAV:   1    -0.400750743334E+02   -0.13143E-05   -0.26158E-04  9856   0.917E-02    0.925E-03
DAV:   2    -0.400750739552E+02    0.37814E-06   -0.85147E-06 11824   0.370E-02    0.547E-03
DAV:   3    -0.400750735309E+02    0.42434E-06   -0.11322E-06 12176   0.246E-02    0.217E-03
DAV:   4    -0.400750734711E+02    0.59806E-07   -0.36028E-07 11812   0.135E-02    0.378E-04
DAV:   5    -0.400750734809E+02   -0.98275E-08   -0.14780E-07 10772   0.367E-03    0.320E-04
DAV:   6    -0.400750734801E+02    0.76125E-09   -0.14912E-08  6780   0.269E-03
  26 F= -.40075073E+02 E0= -.40075073E+02  d E =-.461554E-06
 trial-energy change:   -0.000000  1 .order   -0.000000   -0.000001   -0.000000
 step:   1.5249(harm=  1.5249)  dis= 0.00012  next Energy=   -40.075074 (dE=-0.493E-06)
 bond charge predicted
       N       E                     dE             d eps       ncg     rms          rms(c)
DAV:   1    -0.400750737014E+02   -0.22048E-06   -0.51893E-05  9856   0.410E-02    0.413E-03
DAV:   2    -0.400750736274E+02    0.73941E-07   -0.17241E-06 11872   0.173E-02    0.245E-03
DAV:   3    -0.400750735489E+02    0.78523E-07   -0.24010E-07 12252   0.125E-02    0.985E-04
DAV:   4    -0.400750735369E+02    0.12001E-07   -0.76834E-08 10712   0.626E-03    0.168E-04
DAV:   5    -0.400750735384E+02   -0.14825E-08   -0.32429E-08  8108   0.154E-03
  27 F= -.40075074E+02 E0= -.40075074E+02  d E =-.519812E-06
 curvature:  -1.69 expect dE=-0.587E-06 dE for cont linesearch -0.814E-09
 trial: gam= 0.57580 g(F)=  0.226E-06 g(S)=  0.121E-06 ort = 0.263E-07 (trialstep = 0.115E+01)
 search vector abs. value=  0.853E-06
 bond charge predicted
       N       E                     dE             d eps       ncg     rms          rms(c)
DAV:   1    -0.400750712423E+02    0.22946E-05   -0.20246E-04  9856   0.798E-02    0.681E-03
DAV:   2    -0.400750712675E+02   -0.25205E-07   -0.61635E-06 11192   0.269E-02    0.401E-03
DAV:   3    -0.400750710297E+02    0.23779E-06   -0.77781E-07 13180   0.206E-02    0.150E-03
DAV:   4    -0.400750710117E+02    0.18031E-07   -0.21397E-07 12432   0.116E-02    0.301E-04
DAV:   5    -0.400750710233E+02   -0.11562E-07   -0.11638E-07 11900   0.286E-03    0.258E-04
DAV:   6    -0.400750710228E+02    0.45247E-09   -0.45754E-09  5568   0.165E-03
  28 F= -.40075071E+02 E0= -.40075071E+02  d E =0.251558E-05
 trial-energy change:    0.000003  1 .order   -0.000000   -0.000000   -0.000000
 step:   1.2629(harm=  1.2629)  dis= 0.00010  next Energy=   -40.075074 (dE=-0.229E-06)
 bond charge predicted
       N       E                     dE             d eps       ncg     rms          rms(c)
DAV:   1    -0.400750710311E+02   -0.78048E-08   -0.20175E-06  9880   0.800E-03    0.705E-04
DAV:   2    -0.400750710324E+02   -0.13620E-08   -0.66046E-08 10776   0.264E-03
  29 F= -.40075071E+02 E0= -.40075071E+02  d E =0.250596E-05
 curvature:  -1.49 expect dE=-0.292E-06 dE for cont linesearch -0.170E-07
 trial: gam= 0.00000 g(F)=  0.124E-06 g(S)=  0.726E-07 ort = 0.986E-07 (trialstep = 0.117E+01)
 search vector abs. value=  0.197E-06
 bond charge predicted
       N       E                     dE             d eps       ncg     rms          rms(c)
DAV:   1    -0.400750712116E+02   -0.18054E-06   -0.43367E-05  9892   0.415E-02    0.417E-03
DAV:   2    -0.400750711550E+02    0.56591E-07   -0.23946E-06 11548   0.183E-02    0.234E-03
DAV:   3    -0.400750711372E+02    0.17854E-07   -0.27412E-07 13424   0.668E-03    0.106E-03
DAV:   4    -0.400750711312E+02    0.59349E-08   -0.53988E-08 10760   0.502E-03
  30 F= -.40075071E+02 E0= -.40075071E+02  d E =-.987943E-07
 trial-energy change:   -0.000000  1 .order   -0.000000   -0.000000    0.000000
 step:   1.1420(harm=  1.1420)  dis= 0.00003  next Energy=   -40.075071 (dE=-0.112E-06)
 bond charge predicted
       N       E                     dE             d eps       ncg     rms          rms(c)
DAV:   1    -0.400750711338E+02    0.33874E-08   -0.51132E-08 10188   0.206E-03    0.149E-04
DAV:   2    -0.400750711330E+02    0.78353E-09   -0.56605E-09  5236   0.116E-03
  31 F= -.40075071E+02 E0= -.40075071E+02  d E =-.100558E-06
 curvature:  -0.57 expect dE=-0.443E-07 dE for cont linesearch -0.483E-10
 trial: gam= 0.37399 g(F)=  0.596E-07 g(S)=  0.180E-07 ort = 0.408E-08 (trialstep = 0.117E+01)
 search vector abs. value=  0.108E-06
 reached required accuracy - stopping structural energy minimisation
 writing wavefunctions
Wed Jan  5 23:54:47 CST 2022
