Thu Jan  6 00:13:11 CST 2022
 running on   48 total cores
 distrk:  each k-point on   48 cores,    1 groups
 distr:  one band on   24 cores,    2 groups
 using from now: INCAR     
 vasp.5.3.5 31Mar14 (build Jan 11 2016 19:50:55) complex                        
  
 POSCAR found type information on POSCAR  Zn Ga N  O 
 POSCAR found :  4 types and       8 ions
 scaLAPACK will be used

 ----------------------------------------------------------------------------- 
|                                                                             |
|           W    W    AA    RRRRR   N    N  II  N    N   GGGG   !!!           |
|           W    W   A  A   R    R  NN   N  II  NN   N  G    G  !!!           |
|           W    W  A    A  R    R  N N  N  II  N N  N  G       !!!           |
|           W WW W  AAAAAA  RRRRR   N  N N  II  N  N N  G  GGG   !            |
|           WW  WW  A    A  R   R   N   NN  II  N   NN  G    G                |
|           W    W  A    A  R    R  N    N  II  N    N   GGGG   !!!           |
|                                                                             |
|      For optimal performance we recommend to set                            |
|        NCORE= 4 - approx SQRT( number of cores)                             |
|      NCORE specifies how many cores store one orbital (NPAR=cpu/NCORE).     |
|      This setting can  greatly improve the performance of VASP for DFT.     |
|      The default, NPAR=number of cores might be grossly inefficient         |
|      on modern multi-core architectures or massively parallel machines.     |
|      Do your own testing !!!!                                               |
|      Unfortunately you need to use the default for GW and RPA calculations. |
|      (for HF NCORE is supported but not extensively tested yet)             |
|                                                                             |
 ----------------------------------------------------------------------------- 

 LDA part: xc-table for Pade appr. of Perdew
 POSCAR, INCAR and KPOINTS ok, starting setup
 WARNING: small aliasing (wrap around) errors must be expected
 FFT: planning ...
 WAVECAR not read
 entering main loop
       N       E                     dE             d eps       ncg     rms          rms(c)
DAV:   1     0.911615570476E+03    0.91162E+03   -0.42363E+04 10304   0.342E+03
DAV:   2     0.141279561301E+03   -0.77034E+03   -0.73947E+03  9872   0.799E+02
DAV:   3    -0.338791448028E+02   -0.17516E+03   -0.17042E+03 11048   0.272E+02
DAV:   4    -0.488402331247E+02   -0.14961E+02   -0.14788E+02 12228   0.812E+01
DAV:   5    -0.493042196903E+02   -0.46399E+00   -0.46212E+00 12468   0.143E+01    0.174E+01
DAV:   6    -0.411567361438E+02    0.81475E+01   -0.23068E+01 18600   0.806E+01    0.829E+00
DAV:   7    -0.418839710626E+02   -0.72723E+00   -0.90381E+00 10608   0.210E+01    0.560E+00
DAV:   8    -0.417943121275E+02    0.89659E-01   -0.12077E+00 15368   0.977E+00    0.251E+00
DAV:   9    -0.417590940045E+02    0.35218E-01   -0.19466E-01 14128   0.478E+00    0.105E+00
DAV:  10    -0.417484858641E+02    0.10608E-01   -0.68637E-02 13564   0.176E+00    0.394E-01
DAV:  11    -0.417488797275E+02   -0.39386E-03   -0.11214E-02 14088   0.966E-01    0.108E-01
DAV:  12    -0.417490346787E+02   -0.15495E-03   -0.20802E-03 11692   0.599E-01    0.484E-02
DAV:  13    -0.417490790039E+02   -0.44325E-04   -0.36985E-04 13540   0.178E-01    0.563E-02
DAV:  14    -0.417490702679E+02    0.87360E-05   -0.71333E-05 12740   0.153E-01    0.284E-02
DAV:  15    -0.417490723747E+02   -0.21068E-05   -0.64026E-05 14372   0.915E-02    0.257E-02
DAV:  16    -0.417490723058E+02    0.68916E-07   -0.64224E-06 13848   0.441E-02    0.777E-03
DAV:  17    -0.417490723179E+02   -0.12121E-07   -0.22094E-06 13680   0.150E-02    0.145E-03
DAV:  18    -0.417490721938E+02    0.12406E-06   -0.37386E-07 12472   0.955E-03    0.220E-03
DAV:  19    -0.417490722719E+02   -0.78070E-07   -0.59462E-08 11272   0.349E-03    0.683E-04
DAV:  20    -0.417490722675E+02    0.43860E-08   -0.20655E-08  6908   0.155E-03
   1 F= -.41749072E+02 E0= -.41748249E+02  d E =-.417491E+02
 curvature:   0.00 expect dE= 0.000E+00 dE for cont linesearch  0.000E+00
 trial: gam= 0.00000 g(F)=  0.477E-05 g(S)=  0.214E-04 ort = 0.000E+00 (trialstep = 0.100E+01)
 search vector abs. value=  0.262E-04
 bond charge predicted
       N       E                     dE             d eps       ncg     rms          rms(c)
DAV:   1    -0.417492117798E+02   -0.13951E-03   -0.35849E-03 12700   0.762E-01    0.874E-02
DAV:   2    -0.417491089851E+02    0.10279E-03   -0.66279E-04 12384   0.420E-01    0.386E-02
DAV:   3    -0.417490909285E+02    0.18057E-04   -0.54396E-05 15864   0.993E-02    0.177E-02
DAV:   4    -0.417490853291E+02    0.55994E-05   -0.83852E-06 15824   0.415E-02    0.373E-03
DAV:   5    -0.417490854803E+02   -0.15118E-06   -0.38041E-06 10660   0.168E-02    0.206E-03
DAV:   6    -0.417490854439E+02    0.36360E-07   -0.14122E-07 14056   0.375E-03    0.131E-03
DAV:   7    -0.417490853768E+02    0.67169E-07   -0.33032E-08  8828   0.398E-03    0.315E-04
DAV:   8    -0.417490853653E+02    0.11444E-07   -0.16424E-08  5952   0.260E-03    0.142E-04
DAV:   9    -0.417490853643E+02    0.10118E-08   -0.63368E-09  5672   0.837E-04
   2 F= -.41749085E+02 E0= -.41748272E+02  d E =-.130968E-04
 trial-energy change:   -0.000013  1 .order   -0.000014   -0.000026   -0.000002
 step:   1.1060(harm=  1.0788)  dis= 0.00015  next Energy=   -41.749085 (dE=-0.132E-04)
 bond charge predicted
       N       E                     dE             d eps       ncg     rms          rms(c)
DAV:   1    -0.417490868013E+02   -0.14359E-05   -0.40467E-05 12692   0.811E-02    0.927E-03
DAV:   2    -0.417490856461E+02    0.11552E-05   -0.74530E-06 12328   0.446E-02    0.408E-03
DAV:   3    -0.417490855211E+02    0.12491E-06   -0.61532E-07 15876   0.106E-02    0.187E-03
DAV:   4    -0.417490855098E+02    0.11323E-07   -0.91730E-08 13864   0.441E-03    0.401E-04
DAV:   5    -0.417490855224E+02   -0.12571E-07   -0.46110E-08  9720   0.185E-03    0.223E-04
DAV:   6    -0.417490855178E+02    0.46148E-08   -0.13709E-09  5504   0.472E-04
   3 F= -.41749086E+02 E0= -.41748273E+02  d E =-.132503E-04
 curvature:  -0.48 expect dE=-0.691E-05 dE for cont linesearch -0.498E-08
 trial: gam= 0.57605 g(F)=  0.208E-05 g(S)=  0.125E-04 ort =-0.523E-06 (trialstep = 0.102E+01)
 search vector abs. value=  0.226E-04
 bond charge predicted
       N       E                     dE             d eps       ncg     rms          rms(c)
DAV:   1    -0.417491299251E+02   -0.44403E-04   -0.24689E-03 10376   0.352E-01    0.509E-02
DAV:   2    -0.417491091984E+02    0.20727E-04   -0.15960E-04 11676   0.185E-01    0.289E-02
DAV:   3    -0.417490976925E+02    0.11506E-04   -0.17704E-05 12816   0.606E-02    0.115E-02
DAV:   4    -0.417490956907E+02    0.20018E-05   -0.51703E-06 12712   0.317E-02    0.145E-03
DAV:   5    -0.417490958401E+02   -0.14936E-06   -0.15383E-06 10540   0.117E-02    0.110E-03
DAV:   6    -0.417490958563E+02   -0.16232E-07   -0.88046E-08 11948   0.536E-03    0.614E-04
DAV:   7    -0.417490958736E+02   -0.17284E-07   -0.14251E-08  6128   0.376E-03    0.157E-04
DAV:   8    -0.417490958790E+02   -0.54210E-08   -0.79777E-09  5712   0.157E-03
   4 F= -.41749096E+02 E0= -.41748285E+02  d E =-.103613E-04
 trial-energy change:   -0.000010  1 .order   -0.000010   -0.000015   -0.000006
 step:   1.7835(harm=  1.7835)  dis= 0.00030  next Energy=   -41.749098 (dE=-0.127E-04)
 bond charge predicted
       N       E                     dE             d eps       ncg     rms          rms(c)
DAV:   1    -0.417491172441E+02   -0.21370E-04   -0.13756E-03 10368   0.263E-01    0.380E-02
DAV:   2    -0.417491057399E+02    0.11504E-04   -0.88880E-05 11684   0.138E-01    0.216E-02
DAV:   3    -0.417490992516E+02    0.64883E-05   -0.98854E-06 12748   0.452E-02    0.858E-03
DAV:   4    -0.417490981199E+02    0.11317E-05   -0.28892E-06 12736   0.236E-02    0.108E-03
DAV:   5    -0.417490982057E+02   -0.85800E-07   -0.85604E-07 10524   0.870E-03    0.820E-04
DAV:   6    -0.417490982183E+02   -0.12608E-07   -0.47256E-08 10428   0.401E-03    0.456E-04
DAV:   7    -0.417490982315E+02   -0.13194E-07   -0.92154E-09  6012   0.291E-03    0.117E-04
DAV:   8    -0.417490982356E+02   -0.41141E-08   -0.49638E-09  5548   0.129E-03
   5 F= -.41749098E+02 E0= -.41748289E+02  d E =-.127178E-04
 curvature:  -1.42 expect dE=-0.226E-05 dE for cont linesearch -0.861E-10
 trial: gam= 0.07349 g(F)=  0.129E-05 g(S)=  0.309E-06 ort = 0.371E-07 (trialstep = 0.117E+01)
 search vector abs. value=  0.172E-05
 bond charge predicted
       N       E                     dE             d eps       ncg     rms          rms(c)
DAV:   1    -0.417490995695E+02   -0.13380E-05   -0.37356E-04 10328   0.112E-01    0.101E-02
DAV:   2    -0.417490996321E+02   -0.62611E-07   -0.13696E-05 11740   0.321E-02    0.618E-03
DAV:   3    -0.417490989539E+02    0.67814E-06   -0.10900E-06 14764   0.121E-02    0.152E-03
DAV:   4    -0.417490989279E+02    0.26067E-07   -0.36546E-07 10844   0.566E-03    0.462E-04
DAV:   5    -0.417490989319E+02   -0.40054E-08   -0.70461E-08 11588   0.209E-03
   6 F= -.41749099E+02 E0= -.41748291E+02  d E =-.696295E-06
 trial-energy change:   -0.000001  1 .order   -0.000001   -0.000002    0.000000
 step:   0.9658(harm=  1.0061)  dis= 0.00015  next Energy=   -41.749099 (dE=-0.724E-06)
 bond charge predicted
       N       E                     dE             d eps       ncg     rms          rms(c)
DAV:   1    -0.417490989668E+02   -0.38975E-07   -0.11705E-05 10280   0.198E-02    0.179E-03
DAV:   2    -0.417490989724E+02   -0.55957E-08   -0.43860E-07 11840   0.586E-03    0.111E-03
DAV:   3    -0.417490989641E+02    0.83742E-08   -0.32636E-08  8784   0.315E-03
   7 F= -.41749099E+02 E0= -.41748291E+02  d E =-.728486E-06
 curvature:  -0.51 expect dE=-0.149E-06 dE for cont linesearch -0.167E-09
 trial: gam= 0.14549 g(F)=  0.170E-06 g(S)=  0.122E-06 ort = 0.238E-07 (trialstep = 0.113E+01)
 search vector abs. value=  0.335E-06
 bond charge predicted
       N       E                     dE             d eps       ncg     rms          rms(c)
DAV:   1    -0.417490993502E+02   -0.37778E-06   -0.72636E-05 10352   0.612E-02    0.607E-03
DAV:   2    -0.417490991550E+02    0.19523E-06   -0.56322E-06 11752   0.307E-02    0.301E-03
DAV:   3    -0.417490990978E+02    0.57179E-07   -0.48114E-07 13780   0.893E-03    0.144E-03
DAV:   4    -0.417490990789E+02    0.18948E-07   -0.10624E-07 13552   0.477E-03    0.275E-04
DAV:   5    -0.417490990848E+02   -0.59108E-08   -0.36543E-08  9680   0.163E-03
   8 F= -.41749099E+02 E0= -.41748291E+02  d E =-.120710E-06
 trial-energy change:   -0.000000  1 .order   -0.000000   -0.000000    0.000000
 step:   0.9742(harm=  0.9742)  dis= 0.00004  next Energy=   -41.749099 (dE=-0.144E-06)
 bond charge predicted
       N       E                     dE             d eps       ncg     rms          rms(c)
DAV:   1    -0.417490990984E+02   -0.19531E-07   -0.14151E-06 10344   0.859E-03    0.823E-04
DAV:   2    -0.417490990971E+02    0.13142E-08   -0.10923E-07 11544   0.430E-03    0.423E-04
DAV:   3    -0.417490990857E+02    0.11370E-07   -0.73256E-09  5180   0.132E-03    0.204E-04
DAV:   4    -0.417490990806E+02    0.51036E-08   -0.35332E-09  5140   0.877E-04
   9 F= -.41749099E+02 E0= -.41748291E+02  d E =-.116542E-06
 curvature:  -0.55 expect dE=-0.667E-07 dE for cont linesearch -0.112E-08
 trial: gam= 0.36631 g(F)=  0.703E-07 g(S)=  0.502E-07 ort = 0.260E-07 (trialstep = 0.110E+01)
 search vector abs. value=  0.185E-06
 bond charge predicted
       N       E                     dE             d eps       ncg     rms          rms(c)
DAV:   1    -0.417490992333E+02   -0.14759E-06   -0.37071E-05 10024   0.355E-02    0.314E-03
DAV:   2    -0.417490992087E+02    0.24581E-07   -0.11372E-06 12596   0.941E-03    0.186E-03
DAV:   3    -0.417490991493E+02    0.59428E-07   -0.79479E-08 12860   0.299E-03    0.426E-04
DAV:   4    -0.417490991452E+02    0.40350E-08   -0.27019E-08  8008   0.140E-03
  10 F= -.41749099E+02 E0= -.41748291E+02  d E =-.646446E-07
 trial-energy change:   -0.000000  1 .order   -0.000000   -0.000000   -0.000000
 step:   1.2285(harm=  1.2285)  dis= 0.00004  next Energy=   -41.749099 (dE=-0.799E-07)
 bond charge predicted
       N       E                     dE             d eps       ncg     rms          rms(c)
DAV:   1    -0.417490991480E+02    0.12583E-08   -0.50797E-07 10244   0.425E-03    0.383E-04
DAV:   2    -0.417490991468E+02    0.12478E-08   -0.12716E-08  6048   0.148E-03
  11 F= -.41749099E+02 E0= -.41748291E+02  d E =-.661735E-07
 curvature:  -0.87 expect dE=-0.966E-07 dE for cont linesearch -0.116E-08
 trial: gam= 0.64073 g(F)=  0.484E-07 g(S)=  0.623E-07 ort = 0.157E-07 (trialstep = 0.101E+01)
 search vector abs. value=  0.207E-06
 reached required accuracy - stopping structural energy minimisation
 writing wavefunctions
Thu Jan  6 00:15:37 CST 2022
