Thu Jan  6 01:20:42 CST 2022
 running on   48 total cores
 distrk:  each k-point on   48 cores,    1 groups
 distr:  one band on   24 cores,    2 groups
 using from now: INCAR     
 vasp.5.3.5 31Mar14 (build Jan 11 2016 19:50:55) complex                        
  
 POSCAR found type information on POSCAR  Zn Ga N  O 
 POSCAR found :  4 types and       8 ions
 scaLAPACK will be used

 ----------------------------------------------------------------------------- 
|                                                                             |
|           W    W    AA    RRRRR   N    N  II  N    N   GGGG   !!!           |
|           W    W   A  A   R    R  NN   N  II  NN   N  G    G  !!!           |
|           W    W  A    A  R    R  N N  N  II  N N  N  G       !!!           |
|           W WW W  AAAAAA  RRRRR   N  N N  II  N  N N  G  GGG   !            |
|           WW  WW  A    A  R   R   N   NN  II  N   NN  G    G                |
|           W    W  A    A  R    R  N    N  II  N    N   GGGG   !!!           |
|                                                                             |
|      For optimal performance we recommend to set                            |
|        NCORE= 4 - approx SQRT( number of cores)                             |
|      NCORE specifies how many cores store one orbital (NPAR=cpu/NCORE).     |
|      This setting can  greatly improve the performance of VASP for DFT.     |
|      The default, NPAR=number of cores might be grossly inefficient         |
|      on modern multi-core architectures or massively parallel machines.     |
|      Do your own testing !!!!                                               |
|      Unfortunately you need to use the default for GW and RPA calculations. |
|      (for HF NCORE is supported but not extensively tested yet)             |
|                                                                             |
 ----------------------------------------------------------------------------- 

 LDA part: xc-table for Pade appr. of Perdew
 POSCAR, INCAR and KPOINTS ok, starting setup
 WARNING: small aliasing (wrap around) errors must be expected
 FFT: planning ...
 WAVECAR not read
 entering main loop
       N       E                     dE             d eps       ncg     rms          rms(c)
DAV:   1     0.861586753164E+03    0.86159E+03   -0.40762E+04 10156   0.295E+03
DAV:   2     0.140011055214E+03   -0.72158E+03   -0.69400E+03 10056   0.718E+02
DAV:   3    -0.281980082116E+02   -0.16821E+03   -0.16380E+03 11448   0.251E+02
DAV:   4    -0.433999344501E+02   -0.15202E+02   -0.15044E+02 12556   0.762E+01
DAV:   5    -0.438239005349E+02   -0.42397E+00   -0.42212E+00 11456   0.125E+01    0.147E+01
DAV:   6    -0.382377247623E+02    0.55862E+01   -0.19423E+01 18276   0.551E+01    0.658E+00
DAV:   7    -0.385290510050E+02   -0.29133E+00   -0.59032E+00 10352   0.141E+01    0.467E+00
DAV:   8    -0.385724466723E+02   -0.43396E-01   -0.27429E+00 15956   0.103E+01    0.301E+00
DAV:   9    -0.383653762174E+02    0.20707E+00   -0.89157E-01 16360   0.822E+00    0.565E-01
DAV:  10    -0.383824327352E+02   -0.17057E-01   -0.23404E-01 10764   0.255E+00    0.448E-01
DAV:  11    -0.383809510017E+02    0.14817E-02   -0.17415E-02 13720   0.113E+00    0.184E-01
DAV:  12    -0.383810330083E+02   -0.82007E-04   -0.40865E-03 13424   0.474E-01    0.493E-02
DAV:  13    -0.383812023138E+02   -0.16931E-03   -0.43011E-04 10876   0.246E-01    0.229E-02
DAV:  14    -0.383812351322E+02   -0.32818E-04   -0.72084E-05 11588   0.970E-02    0.146E-02
DAV:  15    -0.383812406947E+02   -0.55625E-05   -0.25780E-05 12848   0.604E-02    0.936E-03
DAV:  16    -0.383812403058E+02    0.38889E-06   -0.73091E-06 13292   0.275E-02    0.409E-03
DAV:  17    -0.383812405847E+02   -0.27886E-06   -0.33875E-06 12056   0.108E-02    0.146E-03
DAV:  18    -0.383812407068E+02   -0.12211E-06   -0.51504E-07 14340   0.829E-03    0.175E-03
DAV:  19    -0.383812406837E+02    0.23121E-07   -0.40558E-07 14484   0.497E-03    0.343E-04
DAV:  20    -0.383812406792E+02    0.45152E-08   -0.61792E-08 11644   0.252E-03
   1 F= -.38381241E+02 E0= -.38380656E+02  d E =-.383812E+02
 curvature:   0.00 expect dE= 0.000E+00 dE for cont linesearch  0.000E+00
 trial: gam= 0.00000 g(F)=  0.245E-02 g(S)=  0.648E-02 ort = 0.000E+00 (trialstep = 0.100E+01)
 search vector abs. value=  0.893E-02
 bond charge predicted
       N       E                     dE             d eps       ncg     rms          rms(c)
DAV:   1    -0.384287049910E+02   -0.47464E-01   -0.17018E+00 10956   0.119E+01    0.171E+00
DAV:   2    -0.383854708020E+02    0.43234E-01   -0.28179E-01 11704   0.674E+00    0.712E-01
DAV:   3    -0.383774743915E+02    0.79964E-02   -0.22204E-02 12828   0.168E+00    0.349E-01
DAV:   4    -0.383750453810E+02    0.24290E-02   -0.60713E-03 12416   0.840E-01    0.115E-01
DAV:   5    -0.383749385109E+02    0.10687E-03   -0.17090E-03 10832   0.381E-01    0.514E-02
DAV:   6    -0.383749092923E+02    0.29219E-04   -0.44292E-04 15704   0.162E-01    0.249E-02
DAV:   7    -0.383749052432E+02    0.40492E-05   -0.12280E-04 13044   0.113E-01    0.955E-03
DAV:   8    -0.383749062749E+02   -0.10318E-05   -0.19307E-05 13432   0.412E-02    0.647E-03
DAV:   9    -0.383749064592E+02   -0.18422E-06   -0.48529E-06 13376   0.217E-02    0.279E-03
DAV:  10    -0.383749065615E+02   -0.10235E-06   -0.69393E-07 12192   0.107E-02    0.989E-04
DAV:  11    -0.383749066151E+02   -0.53631E-07   -0.35448E-07 13420   0.452E-03    0.706E-04
DAV:  12    -0.383749066267E+02   -0.11533E-07   -0.64820E-08 11760   0.219E-03    0.323E-04
DAV:  13    -0.383749066340E+02   -0.73414E-08   -0.14649E-08  7080   0.111E-03
   2 F= -.38374907E+02 E0= -.38374477E+02  d E =0.633405E-02
 trial-energy change:    0.006334  1 .order    0.006621   -0.008929    0.022172
 step:   0.2987(harm=  0.2871)  dis= 0.00223  next Energy=   -38.382582 (dE=-0.134E-02)
 bond charge predicted
       N       E                     dE             d eps       ncg     rms          rms(c)
DAV:   1    -0.384095321988E+02   -0.34626E-01   -0.83906E-01 10940   0.825E+00    0.120E+00
DAV:   2    -0.383876046463E+02    0.21928E-01   -0.13676E-01 11568   0.483E+00    0.498E-01
DAV:   3    -0.383838280816E+02    0.37766E-02   -0.11614E-02 13100   0.124E+00    0.248E-01
DAV:   4    -0.383826458420E+02    0.11822E-02   -0.28516E-03 13144   0.593E-01    0.825E-02
DAV:   5    -0.383825933485E+02    0.52493E-04   -0.82796E-04 10756   0.260E-01    0.352E-02
DAV:   6    -0.383825841379E+02    0.92106E-05   -0.19963E-04 15896   0.117E-01    0.168E-02
DAV:   7    -0.383825823612E+02    0.17767E-05   -0.54557E-05 13052   0.799E-02    0.675E-03
DAV:   8    -0.383825827474E+02   -0.38622E-06   -0.89347E-06 13452   0.281E-02    0.453E-03
DAV:   9    -0.383825827188E+02    0.28580E-07   -0.23079E-06 14056   0.141E-02    0.183E-03
DAV:  10    -0.383825826968E+02    0.22033E-07   -0.31298E-07 11628   0.715E-03    0.670E-04
DAV:  11    -0.383825826889E+02    0.79003E-08   -0.15612E-07 12624   0.255E-03    0.471E-04
DAV:  12    -0.383825826828E+02    0.61254E-08   -0.26263E-08  8580   0.142E-03
   3 F= -.38382583E+02 E0= -.38382053E+02  d E =-.134200E-02
 curvature:  -0.14 expect dE=-0.337E-02 dE for cont linesearch -0.755E-08
 trial: gam= 2.63112 g(F)=  0.159E-01 g(S)=  0.758E-02 ort =-0.217E-04 (trialstep = 0.901E-01)
 search vector abs. value=  0.852E-01
 bond charge predicted
       N       E                     dE             d eps       ncg     rms          rms(c)
DAV:   1    -0.383907543549E+02   -0.81717E-02   -0.11079E-01 12432   0.388E+00    0.556E-01
DAV:   2    -0.383855464039E+02    0.52080E-02   -0.24213E-02 12336   0.221E+00    0.217E-01
DAV:   3    -0.383847592230E+02    0.78718E-03   -0.17695E-03 14576   0.471E-01    0.104E-01
DAV:   4    -0.383844917369E+02    0.26749E-03   -0.45170E-04 14260   0.245E-01    0.286E-02
DAV:   5    -0.383844825601E+02    0.91768E-05   -0.14664E-04 11100   0.118E-01    0.149E-02
DAV:   6    -0.383844789447E+02    0.36154E-05   -0.44102E-05 16316   0.543E-02    0.771E-03
DAV:   7    -0.383844785019E+02    0.44278E-06   -0.12625E-05 12780   0.327E-02    0.246E-03
DAV:   8    -0.383844786578E+02   -0.15593E-06   -0.17374E-06 11432   0.142E-02    0.199E-03
DAV:   9    -0.383844787277E+02   -0.69904E-07   -0.36234E-07 12600   0.671E-03    0.887E-04
DAV:  10    -0.383844787641E+02   -0.36332E-07   -0.56630E-08 10636   0.350E-03    0.320E-04
DAV:  11    -0.383844787706E+02   -0.64824E-08   -0.29436E-08  9876   0.156E-03
   4 F= -.38384479E+02 E0= -.38383959E+02  d E =-.189609E-02
 ZBRENT: can't locate minimum, use default step
 trial-energy change:   -0.001896  1 .order   -0.001892   -0.002110   -0.001674
 step:   0.3605(harm=  0.4359)  dis= 0.00099  next Energy=   -38.387233 (dE=-0.465E-02)
 bond charge predicted
       N       E                     dE             d eps       ncg     rms          rms(c)
DAV:   1    -0.384434057213E+02   -0.58927E-01   -0.99295E-01 12312   0.117E+01    0.166E+00
DAV:   2    -0.383969778692E+02    0.46428E-01   -0.21358E-01 12408   0.652E+00    0.650E-01
DAV:   3    -0.383899673985E+02    0.70105E-02   -0.15823E-02 14176   0.138E+00    0.312E-01
DAV:   4    -0.383875867868E+02    0.23806E-02   -0.40335E-03 14288   0.730E-01    0.839E-02
DAV:   5    -0.383875165232E+02    0.70264E-04   -0.13122E-03 11168   0.359E-01    0.436E-02
DAV:   6    -0.383874870325E+02    0.29491E-04   -0.37428E-04 16336   0.158E-01    0.222E-02
DAV:   7    -0.383874833868E+02    0.36457E-05   -0.10492E-04 12984   0.947E-02    0.728E-03
DAV:   8    -0.383874845384E+02   -0.11516E-05   -0.14313E-05 11064   0.420E-02    0.592E-03
DAV:   9    -0.383874848896E+02   -0.35119E-06   -0.31217E-06 12660   0.202E-02    0.256E-03
DAV:  10    -0.383874850370E+02   -0.14746E-06   -0.49524E-07 11188   0.101E-02    0.940E-04
DAV:  11    -0.383874850664E+02   -0.29375E-07   -0.27850E-07 13112   0.459E-03    0.630E-04
DAV:  12    -0.383874850727E+02   -0.63255E-08   -0.70739E-08 11420   0.214E-03
   5 F= -.38387485E+02 E0= -.38386993E+02  d E =-.490239E-02
 curvature:  -0.76 expect dE=-0.252E-02 dE for cont linesearch -0.137E-03
 ZBRENT: extrapolating
 opt :   0.4330  next Energy=   -38.387627 (dE=-0.504E-02)
 bond charge predicted
       N       E                     dE             d eps       ncg     rms          rms(c)
DAV:   1    -0.383916408360E+02   -0.41558E-02   -0.70854E-02 12408   0.309E+00    0.445E-01
DAV:   2    -0.383883065709E+02    0.33343E-02   -0.15540E-02 12336   0.176E+00    0.174E-01
DAV:   3    -0.383878025002E+02    0.50407E-03   -0.11168E-03 14624   0.374E-01    0.832E-02
DAV:   4    -0.383876307359E+02    0.17176E-03   -0.29085E-04 14344   0.195E-01    0.228E-02
DAV:   5    -0.383876247662E+02    0.59697E-05   -0.92816E-05 11184   0.948E-02    0.119E-02
DAV:   6    -0.383876223290E+02    0.24372E-05   -0.27812E-05 16416   0.436E-02    0.606E-03
DAV:   7    -0.383876220789E+02    0.25007E-06   -0.79231E-06 12652   0.257E-02    0.196E-03
DAV:   8    -0.383876221838E+02   -0.10491E-06   -0.10883E-06 11196   0.115E-02    0.160E-03
DAV:   9    -0.383876222360E+02   -0.52161E-07   -0.22680E-07 12400   0.537E-03    0.709E-04
DAV:  10    -0.383876222628E+02   -0.26819E-07   -0.35547E-08  8728   0.277E-03    0.251E-04
DAV:  11    -0.383876222677E+02   -0.49117E-08   -0.18575E-08  7508   0.125E-03
   6 F= -.38387622E+02 E0= -.38387137E+02  d E =-.503958E-02
 curvature:  -0.79 expect dE=-0.319E-02 dE for cont linesearch -0.200E-09
 trial: gam= 0.19342 g(F)=  0.196E-02 g(S)=  0.210E-02 ort =-0.465E-05 (trialstep = 0.159E+00)
 search vector abs. value=  0.724E-02
 bond charge predicted
       N       E                     dE             d eps       ncg     rms          rms(c)
DAV:   1    -0.383886595204E+02   -0.10373E-02   -0.23491E-02 10296   0.103E+00    0.153E-01
DAV:   2    -0.383883740096E+02    0.28551E-03   -0.18379E-03 11048   0.580E-01    0.781E-02
DAV:   3    -0.383882643711E+02    0.10964E-03   -0.23772E-04 14280   0.172E-01    0.336E-02
DAV:   4    -0.383882417725E+02    0.22599E-04   -0.60324E-05 11860   0.878E-02    0.686E-03
DAV:   5    -0.383882427382E+02   -0.96567E-06   -0.20510E-05 10628   0.404E-02    0.408E-03
DAV:   6    -0.383882427207E+02    0.17534E-07   -0.20163E-06 15244   0.166E-02    0.205E-03
DAV:   7    -0.383882427234E+02   -0.27539E-08   -0.46120E-07 13088   0.111E-02    0.103E-03
DAV:   8    -0.383882427502E+02   -0.26785E-07   -0.12605E-07 13196   0.337E-03    0.644E-04
DAV:   9    -0.383882427529E+02   -0.26389E-08   -0.38514E-08  9244   0.142E-03
   7 F= -.38388243E+02 E0= -.38387760E+02  d E =-.620485E-03
 ZBRENT: can't locate minimum, use default step
 trial-energy change:   -0.000620  1 .order   -0.000618   -0.000644   -0.000592
 step:   0.6348(harm=  1.9598)  dis= 0.00275  next Energy=   -38.391599 (dE=-0.398E-02)
 bond charge predicted
       N       E                     dE             d eps       ncg     rms          rms(c)
DAV:   1    -0.383935215157E+02   -0.52788E-02   -0.21120E-01 10296   0.311E+00    0.457E-01
DAV:   2    -0.383909581824E+02    0.25633E-02   -0.16551E-02 11032   0.174E+00    0.234E-01
DAV:   3    -0.383899796981E+02    0.97848E-03   -0.21342E-03 14292   0.513E-01    0.101E-01
DAV:   4    -0.383897796366E+02    0.20006E-03   -0.54534E-04 12104   0.262E-01    0.205E-02
DAV:   5    -0.383897888168E+02   -0.91801E-05   -0.17982E-04 10620   0.119E-01    0.122E-02
DAV:   6    -0.383897887090E+02    0.10781E-06   -0.18012E-05 15216   0.487E-02    0.612E-03
DAV:   7    -0.383897886515E+02    0.57447E-07   -0.41712E-06 13124   0.329E-02    0.305E-03
DAV:   8    -0.383897888144E+02   -0.16282E-06   -0.11414E-06 14468   0.101E-02    0.194E-03
DAV:   9    -0.383897888076E+02    0.67398E-08   -0.36089E-07 13216   0.419E-03    0.551E-04
DAV:  10    -0.383897888236E+02   -0.16006E-07   -0.50106E-08  9684   0.207E-03    0.283E-04
DAV:  11    -0.383897888342E+02   -0.10629E-07   -0.17376E-08  8112   0.152E-03    0.139E-04
DAV:  12    -0.383897888362E+02   -0.19613E-08   -0.69988E-09  5436   0.100E-03
   8 F= -.38389789E+02 E0= -.38389315E+02  d E =-.216657E-02
 curvature:  -0.80 expect dE=-0.226E-02 dE for cont linesearch -0.842E-03
 ZBRENT: increasing intervall
 opt :   1.5870  next Energy=   -38.391488 (dE=-0.387E-02)
 bond charge predicted
       N       E                     dE             d eps       ncg     rms          rms(c)
DAV:   1    -0.384062732924E+02   -0.16484E-01   -0.84231E-01 10292   0.623E+00    0.911E-01
DAV:   2    -0.383961347365E+02    0.10139E-01   -0.66196E-02 11052   0.346E+00    0.466E-01
DAV:   3    -0.383922511957E+02    0.38835E-02   -0.84311E-03 14312   0.101E+00    0.201E-01
DAV:   4    -0.383914579176E+02    0.79328E-03   -0.21815E-03 11648   0.528E-01    0.406E-02
DAV:   5    -0.383914962692E+02   -0.38352E-04   -0.73161E-04 10580   0.246E-01    0.241E-02
DAV:   6    -0.383914960227E+02    0.24654E-06   -0.73466E-05 15164   0.106E-01    0.122E-02
DAV:   7    -0.383914957446E+02    0.27812E-06   -0.16651E-05 12776   0.673E-02    0.604E-03
DAV:   8    -0.383914963221E+02   -0.57751E-06   -0.45672E-06 14788   0.208E-02    0.384E-03
DAV:   9    -0.383914962784E+02    0.43693E-07   -0.14526E-06 12760   0.941E-03    0.110E-03
DAV:  10    -0.383914963193E+02   -0.40941E-07   -0.20272E-07 11716   0.474E-03    0.559E-04
DAV:  11    -0.383914963481E+02   -0.28711E-07   -0.74508E-08 11892   0.285E-03    0.306E-04
DAV:  12    -0.383914963499E+02   -0.18958E-08   -0.18203E-08  6408   0.160E-03
   9 F= -.38391496E+02 E0= -.38391038E+02  d E =-.387408E-02
 curvature:  -1.62 expect dE=-0.982E-02 dE for cont linesearch -0.152E-03
 trial: gam= 1.29741 g(F)=  0.557E-02 g(S)=  0.492E-03 ort = 0.826E-03 (trialstep = 0.158E+00)
 search vector abs. value=  0.204E-01
 bond charge predicted
       N       E                     dE             d eps       ncg     rms          rms(c)
DAV:   1    -0.383923519957E+02   -0.85565E-03   -0.77859E-02  9964   0.174E+00    0.196E-01
DAV:   2    -0.383921490358E+02    0.20296E-03   -0.46785E-03 11704   0.806E-01    0.114E-01
DAV:   3    -0.383919458699E+02    0.20317E-03   -0.55771E-04 12888   0.237E-01    0.484E-02
DAV:   4    -0.383919109534E+02    0.34917E-04   -0.12662E-04 11332   0.113E-01    0.107E-02
DAV:   5    -0.383919127398E+02   -0.17864E-05   -0.36979E-05 11400   0.567E-02    0.549E-03
DAV:   6    -0.383919129316E+02   -0.19178E-06   -0.38906E-06 11720   0.180E-02    0.230E-03
DAV:   7    -0.383919129687E+02   -0.37153E-07   -0.42094E-07 11580   0.113E-02    0.136E-03
DAV:   8    -0.383919130228E+02   -0.54095E-07   -0.17725E-07 12512   0.407E-03    0.641E-04
DAV:   9    -0.383919130274E+02   -0.45798E-08   -0.24599E-08  7312   0.196E-03
  10 F= -.38391913E+02 E0= -.38391433E+02  d E =-.416677E-03
 trial-energy change:   -0.000417  1 .order   -0.000419   -0.001126    0.000288
 step:   0.1254(harm=  0.1257)  dis= 0.00129  next Energy=   -38.391943 (dE=-0.446E-03)
 bond charge predicted
       N       E                     dE             d eps       ncg     rms          rms(c)
DAV:   1    -0.383919615794E+02   -0.48557E-04   -0.32780E-03  9968   0.357E-01    0.402E-02
DAV:   2    -0.383919529230E+02    0.86564E-05   -0.19720E-04 11688   0.165E-01    0.233E-02
DAV:   3    -0.383919447481E+02    0.81749E-05   -0.23571E-05 12824   0.490E-02    0.994E-03
DAV:   4    -0.383919433609E+02    0.13872E-05   -0.54613E-06 11396   0.235E-02    0.219E-03
DAV:   5    -0.383919434330E+02   -0.72117E-07   -0.15656E-06 11372   0.117E-02    0.114E-03
DAV:   6    -0.383919434200E+02    0.13030E-07   -0.16589E-07 11656   0.391E-03    0.480E-04
DAV:   7    -0.383919434151E+02    0.49399E-08   -0.16937E-08  6144   0.246E-03
  11 F= -.38391943E+02 E0= -.38391468E+02  d E =-.447065E-03
 curvature:  -0.18 expect dE=-0.614E-03 dE for cont linesearch -0.181E-10
 trial: gam= 0.75900 g(F)=  0.236E-02 g(S)=  0.105E-02 ort =-0.144E-05 (trialstep = 0.151E+00)
 search vector abs. value=  0.152E-01
 bond charge predicted
       N       E                     dE             d eps       ncg     rms          rms(c)
DAV:   1    -0.383928477715E+02   -0.90435E-03   -0.47839E-02  9888   0.128E+00    0.163E-01
DAV:   2    -0.383925992757E+02    0.24850E-03   -0.19382E-03 11264   0.502E-01    0.956E-02
DAV:   3    -0.383924212300E+02    0.17805E-03   -0.35118E-04 14848   0.250E-01    0.269E-02
DAV:   4    -0.383924156869E+02    0.55431E-05   -0.95836E-05 10588   0.133E-01    0.714E-03
DAV:   5    -0.383924167628E+02   -0.10759E-05   -0.19109E-05 11532   0.440E-02    0.513E-03
DAV:   6    -0.383924167581E+02    0.47339E-08   -0.25838E-06 12728   0.271E-02    0.251E-03
DAV:   7    -0.383924167735E+02   -0.15380E-07   -0.47790E-07 11600   0.105E-02    0.106E-03
DAV:   8    -0.383924167662E+02    0.73123E-08   -0.17991E-07 14040   0.523E-03    0.511E-04
DAV:   9    -0.383924167753E+02   -0.91804E-08   -0.42829E-08  9864   0.289E-03
  12 F= -.38392417E+02 E0= -.38391940E+02  d E =-.473360E-03
 ZBRENT: can't locate minimum, use default step
 trial-energy change:   -0.000473  1 .order   -0.000474   -0.000517   -0.000430
 step:   0.6052(harm=  0.9059)  dis= 0.00570  next Energy=   -38.393490 (dE=-0.155E-02)
 bond charge predicted
       N       E                     dE             d eps       ncg     rms          rms(c)
DAV:   1    -0.383972238769E+02   -0.48071E-02   -0.43036E-01  9892   0.385E+00    0.489E-01
DAV:   2    -0.383949750523E+02    0.22488E-02   -0.17321E-02 11256   0.149E+00    0.287E-01
DAV:   3    -0.383933677852E+02    0.16073E-02   -0.31553E-03 14812   0.741E-01    0.802E-02
DAV:   4    -0.383933192948E+02    0.48490E-04   -0.85743E-04 10580   0.407E-01    0.216E-02
DAV:   5    -0.383933296377E+02   -0.10343E-04   -0.17721E-04 11556   0.148E-01    0.155E-02
DAV:   6    -0.383933296516E+02   -0.13863E-07   -0.25273E-05 11840   0.886E-02    0.742E-03
DAV:   7    -0.383933299883E+02   -0.33674E-06   -0.49095E-06 13188   0.331E-02    0.307E-03
DAV:   8    -0.383933300352E+02   -0.46857E-07   -0.15622E-06 14152   0.170E-02    0.149E-03
DAV:   9    -0.383933300700E+02   -0.34871E-07   -0.33235E-07 11244   0.860E-03    0.690E-04
DAV:  10    -0.383933300860E+02   -0.16000E-07   -0.13724E-07 12384   0.332E-03    0.456E-04
DAV:  11    -0.383933300829E+02    0.31578E-08   -0.17335E-08  6692   0.123E-03
  13 F= -.38393330E+02 E0= -.38392850E+02  d E =-.138667E-02
 curvature:  -1.69 expect dE=-0.113E-01 dE for cont linesearch -0.147E-03
 trial: gam= 0.74461 g(F)=  0.599E-02 g(S)=  0.664E-03 ort = 0.115E-02 (trialstep = 0.219E+00)
 search vector abs. value=  0.168E-01
 bond charge predicted
       N       E                     dE             d eps       ncg     rms          rms(c)
DAV:   1    -0.383938211540E+02   -0.49107E-03   -0.13190E-01  9924   0.236E+00    0.266E-01
DAV:   2    -0.383935359515E+02    0.28520E-03   -0.99280E-03 11704   0.109E+00    0.157E-01
DAV:   3    -0.383931678327E+02    0.36812E-03   -0.11142E-03 11820   0.345E-01    0.709E-02
DAV:   4    -0.383930994733E+02    0.68359E-04   -0.28376E-04 11192   0.201E-01    0.188E-02
DAV:   5    -0.383931017573E+02   -0.22840E-05   -0.69984E-05 11588   0.102E-01    0.861E-03
DAV:   6    -0.383931020285E+02   -0.27114E-06   -0.13151E-05 11656   0.506E-02    0.452E-03
DAV:   7    -0.383931020305E+02   -0.20304E-08   -0.20277E-06 12260   0.242E-02    0.204E-03
DAV:   8    -0.383931020443E+02   -0.13789E-07   -0.71595E-07 14940   0.870E-03    0.106E-03
DAV:   9    -0.383931020527E+02   -0.84419E-08   -0.15294E-07 11640   0.445E-03    0.518E-04
DAV:  10    -0.383931020528E+02   -0.30923E-10   -0.56034E-08 11216   0.153E-03
  14 F= -.38393102E+02 E0= -.38392663E+02  d E =0.228030E-03
 trial-energy change:    0.000228  1 .order    0.000247   -0.001644    0.002138
 step:   0.0968(harm=  0.0952)  dis= 0.00088  next Energy=   -38.393695 (dE=-0.365E-03)
 bond charge predicted
       N       E                     dE             d eps       ncg     rms          rms(c)
DAV:   1    -0.383939235939E+02   -0.82154E-03   -0.41105E-02  9912   0.132E+00    0.149E-01
DAV:   2    -0.383938313728E+02    0.92221E-04   -0.30758E-03 11728   0.610E-01    0.880E-02
DAV:   3    -0.383937148879E+02    0.11648E-03   -0.34659E-04 12060   0.192E-01    0.398E-02
DAV:   4    -0.383936928021E+02    0.22086E-04   -0.85872E-05 11184   0.113E-01    0.106E-02
DAV:   5    -0.383936936092E+02   -0.80711E-06   -0.22358E-05 11560   0.611E-02    0.477E-03
DAV:   6    -0.383936937675E+02   -0.15831E-06   -0.42758E-06 11472   0.294E-02    0.254E-03
DAV:   7    -0.383936938290E+02   -0.61455E-07   -0.68084E-07 12072   0.140E-02    0.114E-03
DAV:   8    -0.383936938780E+02   -0.48970E-07   -0.23673E-07 14008   0.513E-03    0.611E-04
DAV:   9    -0.383936938755E+02    0.24766E-08   -0.49652E-08  9380   0.256E-03
  15 F= -.38393694E+02 E0= -.38393233E+02  d E =-.363793E-03
 curvature:  -0.11 expect dE=-0.127E-03 dE for cont linesearch -0.965E-08
 trial: gam= 0.33009 g(F)=  0.971E-03 g(S)=  0.223E-03 ort =-0.390E-04 (trialstep = 0.194E+00)
 search vector abs. value=  0.300E-02
 bond charge predicted
       N       E                     dE             d eps       ncg     rms          rms(c)
DAV:   1    -0.383939985225E+02   -0.30464E-03   -0.18613E-02  9860   0.785E-01    0.859E-02
DAV:   2    -0.383939541006E+02    0.44422E-04   -0.76141E-04 10892   0.314E-01    0.494E-02
DAV:   3    -0.383939093042E+02    0.44796E-04   -0.11402E-04 13504   0.162E-01    0.178E-02
DAV:   4    -0.383939059089E+02    0.33952E-05   -0.29598E-05 10912   0.927E-02    0.420E-03
DAV:   5    -0.383939063747E+02   -0.46577E-06   -0.75729E-06 11064   0.253E-02    0.282E-03
DAV:   6    -0.383939063972E+02   -0.22501E-07   -0.90371E-07 11844   0.130E-02    0.148E-03
DAV:   7    -0.383939064015E+02   -0.43356E-08   -0.17575E-07 13432   0.736E-03    0.607E-04
DAV:   8    -0.383939063982E+02    0.33101E-08   -0.67166E-08 11160   0.350E-03
  16 F= -.38393906E+02 E0= -.38393449E+02  d E =-.212523E-03
 trial-energy change:   -0.000213  1 .order   -0.000210   -0.000230   -0.000191
 step:   0.6260(harm=  1.1399)  dis= 0.00296  next Energy=   -38.394144 (dE=-0.450E-03)
 bond charge predicted
       N       E                     dE             d eps       ncg     rms          rms(c)
DAV:   1    -0.383946884093E+02   -0.78201E-03   -0.91640E-02  9860   0.174E+00    0.191E-01
DAV:   2    -0.383944701488E+02    0.21826E-03   -0.37474E-03 10892   0.699E-01    0.110E-01
DAV:   3    -0.383942485655E+02    0.22158E-03   -0.56214E-04 13504   0.361E-01    0.396E-02
DAV:   4    -0.383942316567E+02    0.16909E-04   -0.14539E-04 10892   0.208E-01    0.930E-03
DAV:   5    -0.383942340287E+02   -0.23720E-05   -0.37666E-05 11072   0.561E-02    0.626E-03
DAV:   6    -0.383942341035E+02   -0.74730E-07   -0.44712E-06 11804   0.285E-02    0.324E-03
DAV:   7    -0.383942341321E+02   -0.28575E-07   -0.83221E-07 13372   0.164E-02    0.130E-03
DAV:   8    -0.383942341332E+02   -0.11578E-08   -0.33180E-07 14260   0.752E-03    0.743E-04
DAV:   9    -0.383942341446E+02   -0.11356E-07   -0.76598E-08 10460   0.402E-03    0.378E-04
DAV:  10    -0.383942341532E+02   -0.86379E-08   -0.31322E-08  8584   0.132E-03
  17 F= -.38394234E+02 E0= -.38393786E+02  d E =-.540278E-03
 curvature:  -1.02 expect dE=-0.176E-02 dE for cont linesearch -0.982E-04
 ZBRENT: increasing intervall
 opt :   1.4892  next Energy=   -38.394317 (dE=-0.623E-03)
 bond charge predicted
       N       E                     dE             d eps       ncg     rms          rms(c)
DAV:   1    -0.383961343906E+02   -0.19002E-02   -0.36654E-01  9860   0.348E+00    0.381E-01
DAV:   2    -0.383952561757E+02    0.87821E-03   -0.14968E-02 10892   0.140E+00    0.219E-01
DAV:   3    -0.383943673872E+02    0.88879E-03   -0.22528E-03 13436   0.722E-01    0.793E-02
DAV:   4    -0.383942992201E+02    0.68167E-04   -0.58148E-04 10876   0.425E-01    0.186E-02
DAV:   5    -0.383943090495E+02   -0.98293E-05   -0.15365E-04 11128   0.113E-01    0.126E-02
DAV:   6    -0.383943092997E+02   -0.25021E-06   -0.18189E-05 11792   0.567E-02    0.641E-03
DAV:   7    -0.383943094209E+02   -0.12120E-06   -0.32106E-06 13148   0.330E-02    0.251E-03
DAV:   8    -0.383943094577E+02   -0.36801E-07   -0.12762E-06 14484   0.147E-02    0.148E-03
DAV:   9    -0.383943094849E+02   -0.27179E-07   -0.30496E-07 11520   0.820E-03    0.720E-04
DAV:  10    -0.383943095080E+02   -0.23143E-07   -0.12523E-07 13316   0.263E-03    0.314E-04
DAV:  11    -0.383943095073E+02    0.70304E-09   -0.10763E-08  5768   0.115E-03
  18 F= -.38394310E+02 E0= -.38393879E+02  d E =-.615632E-03
 curvature:  -0.85 expect dE=-0.367E-02 dE for cont linesearch -0.340E-04
 ZBRENT: bracketing found
 ZBRENT: interpolating
 opt :   1.1515  next Energy=   -38.394368 (dE=-0.674E-03)
 bond charge predicted
       N       E                     dE             d eps       ncg     rms          rms(c)
DAV:   1    -0.383946483879E+02   -0.33888E-03   -0.56103E-02  9860   0.136E+00    0.149E-01
DAV:   2    -0.383945154872E+02    0.13290E-03   -0.23039E-03 10892   0.546E-01    0.857E-02
DAV:   3    -0.383943784602E+02    0.13703E-03   -0.34490E-04 13680   0.285E-01    0.310E-02
DAV:   4    -0.383943677874E+02    0.10673E-04   -0.89168E-05 10936   0.160E-01    0.737E-03
DAV:   5    -0.383943692076E+02   -0.14202E-05   -0.22975E-05 11096   0.445E-02    0.488E-03
DAV:   6    -0.383943692101E+02   -0.25152E-08   -0.27443E-06 11872   0.231E-02    0.261E-03
DAV:   7    -0.383943692416E+02   -0.31544E-07   -0.55871E-07 13344   0.129E-02    0.110E-03
DAV:   8    -0.383943692520E+02   -0.10336E-07   -0.22274E-07 13672   0.658E-03    0.582E-04
DAV:   9    -0.383943692481E+02    0.38963E-08   -0.49821E-08  9968   0.304E-03
  19 F= -.38394369E+02 E0= -.38393932E+02  d E =-.675373E-03
 curvature:  -1.46 expect dE=-0.445E-02 dE for cont linesearch -0.124E-08
 trial: gam= 1.55814 g(F)=  0.280E-02 g(S)=  0.241E-03 ort = 0.159E-05 (trialstep = 0.112E+00)
 search vector abs. value=  0.103E-01
 bond charge predicted
       N       E                     dE             d eps       ncg     rms          rms(c)
DAV:   1    -0.383945500032E+02   -0.18075E-03   -0.23237E-02  9876   0.886E-01    0.841E-02
DAV:   2    -0.383945448676E+02    0.51356E-05   -0.10748E-03 11388   0.343E-01    0.537E-02
DAV:   3    -0.383944976562E+02    0.47211E-04   -0.13569E-04 11736   0.146E-01    0.211E-02
DAV:   4    -0.383944939767E+02    0.36795E-05   -0.36289E-05 10720   0.807E-02    0.681E-03
DAV:   5    -0.383944939786E+02   -0.18690E-08   -0.79254E-06 11904   0.342E-02    0.330E-03
DAV:   6    -0.383944940636E+02   -0.84990E-07   -0.17259E-06 12388   0.180E-02    0.132E-03
DAV:   7    -0.383944940910E+02   -0.27406E-07   -0.30567E-07 11652   0.828E-03    0.811E-04
DAV:   8    -0.383944941165E+02   -0.25554E-07   -0.80092E-08 10512   0.236E-03    0.319E-04
DAV:   9    -0.383944941278E+02   -0.11238E-07   -0.76934E-09  5620   0.107E-03    0.915E-05
DAV:  10    -0.383944941298E+02   -0.20073E-08   -0.22217E-09  5344   0.736E-04
  20 F= -.38394494E+02 E0= -.38394048E+02  d E =-.124882E-03
 trial-energy change:   -0.000125  1 .order   -0.000127   -0.000341    0.000087
 step:   0.0887(harm=  0.0893)  dis= 0.00064  next Energy=   -38.394503 (dE=-0.134E-03)
 bond charge predicted
       N       E                     dE             d eps       ncg     rms          rms(c)
DAV:   1    -0.383945053286E+02   -0.11201E-04   -0.10042E-03  9876   0.184E-01    0.175E-02
DAV:   2    -0.383945052112E+02    0.11743E-06   -0.46469E-05 11392   0.713E-02    0.112E-02
DAV:   3    -0.383945032556E+02    0.19555E-05   -0.58254E-06 11708   0.303E-02    0.436E-03
DAV:   4    -0.383945030786E+02    0.17706E-06   -0.15737E-06 10700   0.167E-02    0.141E-03
DAV:   5    -0.383945030534E+02    0.25132E-07   -0.34140E-07 11896   0.709E-03    0.688E-04
DAV:   6    -0.383945030508E+02    0.26080E-08   -0.73700E-08 10708   0.375E-03
  21 F= -.38394503E+02 E0= -.38394059E+02  d E =-.133803E-03
 curvature:  -0.15 expect dE=-0.898E-04 dE for cont linesearch -0.454E-08
 trial: gam= 0.18936 g(F)=  0.490E-03 g(S)=  0.104E-03 ort = 0.176E-04 (trialstep = 0.107E+00)
 search vector abs. value=  0.970E-03
 bond charge predicted
       N       E                     dE             d eps       ncg     rms          rms(c)
DAV:   1    -0.383945708197E+02   -0.67766E-04   -0.20244E-03  9880   0.253E-01    0.236E-02
DAV:   2    -0.383945689347E+02    0.18850E-05   -0.70168E-05 11052   0.755E-02    0.143E-02
DAV:   3    -0.383945650281E+02    0.39066E-05   -0.67469E-06 13760   0.271E-02    0.387E-03
DAV:   4    -0.383945649374E+02    0.90689E-07   -0.23910E-06 10604   0.125E-02    0.121E-03
DAV:   5    -0.383945649628E+02   -0.25402E-07   -0.42690E-07 11852   0.674E-03    0.816E-04
DAV:   6    -0.383945649560E+02    0.67748E-08   -0.37359E-08  9440   0.315E-03
  22 F= -.38394565E+02 E0= -.38394122E+02  d E =-.619052E-04
 ZBRENT: can't locate minimum, use default step
 trial-energy change:   -0.000062  1 .order   -0.000062   -0.000064   -0.000059
 step:   0.4295(harm=  1.4242)  dis= 0.00136  next Energy=   -38.394928 (dE=-0.425E-03)
 bond charge predicted
       N       E                     dE             d eps       ncg     rms          rms(c)
DAV:   1    -0.383947762606E+02   -0.21130E-03   -0.18218E-02  9880   0.759E-01    0.708E-02
DAV:   2    -0.383947590425E+02    0.17218E-04   -0.63034E-04 11012   0.225E-01    0.429E-02
DAV:   3    -0.383947231596E+02    0.35883E-04   -0.61002E-05 13904   0.829E-02    0.116E-02
DAV:   4    -0.383947224006E+02    0.75901E-06   -0.21352E-05 10604   0.372E-02    0.360E-03
DAV:   5    -0.383947226086E+02   -0.20802E-06   -0.36605E-06 11904   0.186E-02    0.240E-03
DAV:   6    -0.383947225740E+02    0.34574E-07   -0.34434E-07 12708   0.850E-03    0.141E-03
DAV:   7    -0.383947225759E+02   -0.18963E-08   -0.14970E-07 10504   0.287E-03    0.583E-04
DAV:   8    -0.383947225741E+02    0.18458E-08   -0.38302E-08  9244   0.175E-03
  23 F= -.38394723E+02 E0= -.38394283E+02  d E =-.219523E-03
 curvature:  -0.50 expect dE=-0.156E-03 dE for cont linesearch -0.913E-04
 ZBRENT: increasing intervall
 opt :   1.0737  next Energy=   -38.394911 (dE=-0.408E-03)
 bond charge predicted
       N       E                     dE             d eps       ncg     rms          rms(c)
DAV:   1    -0.383951237025E+02   -0.40113E-03   -0.72846E-02  9880   0.152E+00    0.142E-01
DAV:   2    -0.383950540838E+02    0.69619E-04   -0.25189E-03 10956   0.450E-01    0.859E-02
DAV:   3    -0.383949099536E+02    0.14413E-03   -0.24605E-04 13968   0.166E-01    0.231E-02
DAV:   4    -0.383949068729E+02    0.30807E-05   -0.84775E-05 10612   0.741E-02    0.719E-03
DAV:   5    -0.383949077015E+02   -0.82862E-06   -0.14544E-05 11844   0.362E-02    0.480E-03
DAV:   6    -0.383949075824E+02    0.11914E-06   -0.13783E-06 12732   0.167E-02    0.283E-03
DAV:   7    -0.383949076043E+02   -0.21930E-07   -0.61740E-07 10516   0.566E-03    0.122E-03
DAV:   8    -0.383949075928E+02    0.11523E-07   -0.16680E-07 13500   0.356E-03    0.436E-04
DAV:   9    -0.383949076062E+02   -0.13363E-07   -0.63839E-08 10256   0.140E-03    0.400E-04
DAV:  10    -0.383949076046E+02    0.15521E-08   -0.57578E-09  5496   0.764E-04
  24 F= -.38394908E+02 E0= -.38394476E+02  d E =-.404554E-03
 curvature:  -1.03 expect dE=-0.195E-03 dE for cont linesearch -0.263E-04
 ZBRENT: increasing intervall
 opt :   2.3622  next Energy=   -38.394770 (dE=-0.267E-03)
 bond charge predicted
       N       E                     dE             d eps       ncg     rms          rms(c)
DAV:   1    -0.383956305563E+02   -0.72295E-03   -0.29134E-01  9880   0.303E+00    0.283E-01
DAV:   2    -0.383953516588E+02    0.27890E-03   -0.10074E-02 10916   0.895E-01    0.172E-01
DAV:   3    -0.383947726145E+02    0.57904E-03   -0.98113E-04 13876   0.327E-01    0.460E-02
DAV:   4    -0.383947607244E+02    0.11890E-04   -0.33790E-04 10600   0.146E-01    0.144E-02
DAV:   5    -0.383947639287E+02   -0.32043E-05   -0.56880E-05 11840   0.701E-02    0.956E-03
DAV:   6    -0.383947634893E+02    0.43931E-06   -0.53711E-06 12824   0.326E-02    0.568E-03
DAV:   7    -0.383947636056E+02   -0.11621E-06   -0.24968E-06 10560   0.113E-02    0.247E-03
DAV:   8    -0.383947635507E+02    0.54878E-07   -0.64780E-07 13960   0.741E-03    0.888E-04
DAV:   9    -0.383947635944E+02   -0.43760E-07   -0.27368E-07 10500   0.333E-03    0.819E-04
DAV:  10    -0.383947635889E+02    0.55215E-08   -0.29383E-08  8476   0.208E-03
  25 F= -.38394764E+02 E0= -.38394346E+02  d E =-.260538E-03
 curvature:   5.38 expect dE= 0.563E-02 dE for cont linesearch  0.802E-03
 ZBRENT: bracketing found
 ZBRENT: interpolating
 opt :   1.4512  next Energy=   -38.394937 (dE=-0.434E-03)
 bond charge predicted
       N       E                     dE             d eps       ncg     rms          rms(c)
DAV:   1    -0.383953700785E+02   -0.60648E-03   -0.14575E-01  9876   0.215E+00    0.200E-01
DAV:   2    -0.383952332754E+02    0.13680E-03   -0.50872E-03 11036   0.641E-01    0.122E-01
DAV:   3    -0.383949420971E+02    0.29118E-03   -0.48369E-04 13544   0.240E-01    0.335E-02
DAV:   4    -0.383949351466E+02    0.69505E-05   -0.17645E-04 10584   0.111E-01    0.103E-02
DAV:   5    -0.383949370171E+02   -0.18705E-05   -0.32177E-05 11848   0.556E-02    0.687E-03
DAV:   6    -0.383949368556E+02    0.16150E-06   -0.28658E-06 12676   0.249E-02    0.403E-03
DAV:   7    -0.383949369385E+02   -0.82887E-07   -0.12460E-06 10548   0.843E-03    0.169E-03
DAV:   8    -0.383949369135E+02    0.25007E-07   -0.35879E-07 13620   0.541E-03    0.618E-04
DAV:   9    -0.383949369195E+02   -0.59758E-08   -0.11971E-07 10376   0.280E-03    0.567E-04
DAV:  10    -0.383949369164E+02    0.30318E-08   -0.13330E-08  6272   0.150E-03
  26 F= -.38394937E+02 E0= -.38394509E+02  d E =-.433866E-03
 curvature:  -0.20 expect dE=-0.570E-04 dE for cont linesearch -0.581E-09
 trial: gam= 0.50417 g(F)=  0.245E-03 g(S)=  0.404E-04 ort = 0.168E-05 (trialstep = 0.376E+00)
 search vector abs. value=  0.534E-03
 bond charge predicted
       N       E                     dE             d eps       ncg     rms          rms(c)
DAV:   1    -0.383950383377E+02   -0.10142E-03   -0.14859E-02 10100   0.737E-01    0.708E-02
DAV:   2    -0.383950156510E+02    0.22687E-04   -0.78548E-04 10748   0.294E-01    0.355E-02
DAV:   3    -0.383949999603E+02    0.15691E-04   -0.70812E-05 12940   0.920E-02    0.185E-02
DAV:   4    -0.383949944477E+02    0.55125E-05   -0.18377E-05 11744   0.463E-02    0.515E-03
DAV:   5    -0.383949944601E+02   -0.12362E-07   -0.53322E-06 10708   0.207E-02    0.232E-03
DAV:   6    -0.383949944526E+02    0.75088E-08   -0.93999E-07 13724   0.862E-03    0.116E-03
DAV:   7    -0.383949944549E+02   -0.22937E-08   -0.17971E-07 12472   0.583E-03    0.560E-04
DAV:   8    -0.383949944639E+02   -0.89758E-08   -0.44457E-08 10484   0.176E-03
  27 F= -.38394994E+02 E0= -.38394575E+02  d E =-.575474E-04
 trial-energy change:   -0.000058  1 .order   -0.000058   -0.000108   -0.000009
 step:   0.4114(harm=  0.4097)  dis= 0.00072  next Energy=   -38.394995 (dE=-0.580E-04)
 bond charge predicted
       N       E                     dE             d eps       ncg     rms          rms(c)
DAV:   1    -0.383949952760E+02   -0.82109E-06   -0.13044E-04 10092   0.692E-02    0.664E-03
DAV:   2    -0.383949951545E+02    0.12142E-06   -0.69818E-06 10856   0.277E-02    0.332E-03
DAV:   3    -0.383949949844E+02    0.17014E-06   -0.62485E-07 12928   0.867E-03    0.175E-03
DAV:   4    -0.383949949207E+02    0.63712E-07   -0.16471E-07 11684   0.445E-03    0.483E-04
DAV:   5    -0.383949949139E+02    0.67698E-08   -0.47880E-08 10084   0.207E-03
  28 F= -.38394995E+02 E0= -.38394576E+02  d E =-.579975E-04
 curvature:  -0.38 expect dE=-0.474E-03 dE for cont linesearch -0.273E-08
 trial: gam= 4.36620 g(F)=  0.103E-02 g(S)=  0.210E-03 ort =-0.196E-05 (trialstep = 0.179E-01)
 search vector abs. value=  0.114E-01
 bond charge predicted
       N       E                     dE             d eps       ncg     rms          rms(c)
DAV:   1    -0.383950199874E+02   -0.25067E-04   -0.69308E-04 10208   0.174E-01    0.181E-02
DAV:   2    -0.383950181465E+02    0.18409E-05   -0.50994E-05 10932   0.851E-02    0.817E-03
DAV:   3    -0.383950173119E+02    0.83458E-06   -0.45065E-06 13772   0.224E-02    0.415E-03
DAV:   4    -0.383950169019E+02    0.41006E-06   -0.74712E-07 13504   0.101E-02    0.106E-03
DAV:   5    -0.383950168752E+02    0.26631E-07   -0.25812E-07 10640   0.411E-03    0.466E-04
DAV:   6    -0.383950168763E+02   -0.10127E-08   -0.34004E-08  8948   0.166E-03
  29 F= -.38395017E+02 E0= -.38394599E+02  d E =-.219623E-04
 ZBRENT: can't locate minimum, use default step
 trial-energy change:   -0.000022  1 .order   -0.000022   -0.000022   -0.000022
 step:   0.0718(harm=  0.6553)  dis= 0.00056  next Energy=   -38.395400 (dE=-0.405E-03)
 bond charge predicted
       N       E                     dE             d eps       ncg     rms          rms(c)
DAV:   1    -0.383951066432E+02   -0.89768E-04   -0.62365E-03 10208   0.523E-01    0.544E-02
DAV:   2    -0.383950893272E+02    0.17316E-04   -0.45952E-04 10928   0.255E-01    0.245E-02
DAV:   3    -0.383950827488E+02    0.65784E-05   -0.40589E-05 13796   0.674E-02    0.124E-02
DAV:   4    -0.383950795133E+02    0.32355E-05   -0.66572E-06 13736   0.303E-02    0.320E-03
DAV:   5    -0.383950794283E+02    0.85025E-07   -0.22876E-06 10644   0.123E-02    0.139E-03
DAV:   6    -0.383950794291E+02   -0.80308E-09   -0.33856E-07 14140   0.514E-03    0.773E-04
DAV:   7    -0.383950794351E+02   -0.60550E-08   -0.72464E-08 12316   0.374E-03
  30 F= -.38395079E+02 E0= -.38394663E+02  d E =-.845212E-04
 curvature:  -0.49 expect dE=-0.497E-03 dE for cont linesearch -0.526E-04
 ZBRENT: increasing intervall
 opt :   0.1794  next Energy=   -38.395189 (dE=-0.194E-03)
 bond charge predicted
       N       E                     dE             d eps       ncg     rms          rms(c)
DAV:   1    -0.383952972789E+02   -0.21785E-03   -0.24944E-02 10208   0.105E+00    0.109E-01
DAV:   2    -0.383952274239E+02    0.69855E-04   -0.18406E-03 10928   0.511E-01    0.489E-02
DAV:   3    -0.383952020788E+02    0.25345E-04   -0.16226E-04 13780   0.134E-01    0.249E-02
DAV:   4    -0.383951895804E+02    0.12498E-04   -0.26698E-05 13688   0.608E-02    0.643E-03
DAV:   5    -0.383951893996E+02    0.18085E-06   -0.91718E-06 10636   0.246E-02    0.279E-03
DAV:   6    -0.383951893956E+02    0.39818E-08   -0.13724E-06 14176   0.103E-02    0.156E-03
DAV:   7    -0.383951894006E+02   -0.50377E-08   -0.29676E-07 13044   0.746E-03    0.721E-04
DAV:   8    -0.383951894215E+02   -0.20852E-07   -0.69634E-08 10964   0.209E-03    0.476E-04
DAV:   9    -0.383951894280E+02   -0.65388E-08   -0.17566E-08  7432   0.128E-03
  31 F= -.38395189E+02 E0= -.38394775E+02  d E =-.194514E-03
 curvature:  -1.01 expect dE=-0.753E-03 dE for cont linesearch -0.768E-04
 ZBRENT: increasing intervall
 opt :   0.3946  next Energy=   -38.395351 (dE=-0.356E-03)
 bond charge predicted
       N       E                     dE             d eps       ncg     rms          rms(c)
DAV:   1    -0.383957776356E+02   -0.58821E-03   -0.99758E-02 10208   0.209E+00    0.217E-01
DAV:   2    -0.383954998732E+02    0.27776E-03   -0.73600E-03 10920   0.102E+00    0.977E-02
DAV:   3    -0.383954004213E+02    0.99452E-04   -0.64824E-04 13780   0.268E-01    0.497E-02
DAV:   4    -0.383953513417E+02    0.49080E-04   -0.10627E-04 13604   0.122E-01    0.128E-02
DAV:   5    -0.383953509645E+02    0.37716E-06   -0.36575E-05 10628   0.490E-02    0.553E-03
DAV:   6    -0.383953509352E+02    0.29291E-07   -0.54230E-06 14124   0.207E-02    0.309E-03
DAV:   7    -0.383953509187E+02    0.16574E-07   -0.11628E-06 13004   0.150E-02    0.144E-03
DAV:   8    -0.383953509743E+02   -0.55613E-07   -0.28022E-07 11268   0.415E-03    0.947E-04
DAV:   9    -0.383953509844E+02   -0.10125E-07   -0.78486E-08 11848   0.247E-03    0.322E-04
DAV:  10    -0.383953509968E+02   -0.12378E-07   -0.12661E-08  6024   0.147E-03    0.157E-04
DAV:  11    -0.383953510011E+02   -0.43624E-08   -0.45618E-09  5416   0.547E-04
  32 F= -.38395351E+02 E0= -.38394942E+02  d E =-.356087E-03
 curvature:  -2.13 expect dE=-0.846E-03 dE for cont linesearch -0.578E-04
 ZBRENT: increasing intervall
 opt :   0.8251  next Energy=   -38.395430 (dE=-0.435E-03)
 bond charge predicted
       N       E                     dE             d eps       ncg     rms          rms(c)
DAV:   1    -0.383971179029E+02   -0.17669E-02   -0.39901E-01 10208   0.420E+00    0.434E-01
DAV:   2    -0.383960205718E+02    0.10973E-02   -0.29451E-02 10916   0.204E+00    0.195E-01
DAV:   3    -0.383956285450E+02    0.39203E-03   -0.25910E-03 13820   0.534E-01    0.992E-02
DAV:   4    -0.383954343677E+02    0.19418E-03   -0.42218E-04 13592   0.245E-01    0.257E-02
DAV:   5    -0.383954333225E+02    0.10452E-05   -0.14510E-04 10612   0.976E-02    0.110E-02
DAV:   6    -0.383954331820E+02    0.14049E-06   -0.21886E-05 14048   0.425E-02    0.622E-03
DAV:   7    -0.383954330308E+02    0.15120E-06   -0.46125E-06 12880   0.307E-02    0.288E-03
DAV:   8    -0.383954332057E+02   -0.17487E-06   -0.12008E-06 11564   0.822E-03    0.190E-03
DAV:   9    -0.383954332116E+02   -0.59181E-08   -0.31874E-07 13720   0.482E-03    0.643E-04
DAV:  10    -0.383954332411E+02   -0.29484E-07   -0.54349E-08 10056   0.268E-03    0.338E-04
DAV:  11    -0.383954332508E+02   -0.97352E-08   -0.13319E-08  6632   0.854E-04
  33 F= -.38395433E+02 E0= -.38395035E+02  d E =-.438337E-03
 curvature:  -2.90 expect dE=-0.156E-02 dE for cont linesearch -0.903E-05
 ZBRENT: bracketing found
 ZBRENT: interpolating
 opt :   0.7162  next Energy=   -38.395444 (dE=-0.449E-03)
 bond charge predicted
       N       E                     dE             d eps       ncg     rms          rms(c)
DAV:   1    -0.383955517415E+02   -0.11850E-03   -0.25544E-02 10212   0.105E+00    0.110E-01
DAV:   2    -0.383954789672E+02    0.72774E-04   -0.18748E-03 10968   0.515E-01    0.494E-02
DAV:   3    -0.383954547215E+02    0.24246E-04   -0.16484E-04 13796   0.136E-01    0.251E-02
DAV:   4    -0.383954428332E+02    0.11888E-04   -0.27399E-05 13808   0.608E-02    0.642E-03
DAV:   5    -0.383954429951E+02   -0.16199E-06   -0.93198E-06 10636   0.249E-02    0.282E-03
DAV:   6    -0.383954429752E+02    0.19967E-07   -0.13691E-06 14176   0.102E-02    0.156E-03
DAV:   7    -0.383954429435E+02    0.31725E-07   -0.30114E-07 13144   0.735E-03    0.723E-04
DAV:   8    -0.383954429359E+02    0.75711E-08   -0.66445E-08 10800   0.210E-03
  34 F= -.38395443E+02 E0= -.38395042E+02  d E =-.448022E-03
 curvature:  -3.30 expect dE=-0.131E-02 dE for cont linesearch -0.778E-09
 trial: gam= 0.27923 g(F)=  0.255E-03 g(S)=  0.143E-03 ort = 0.164E-05 (trialstep = 0.158E+00)
 search vector abs. value=  0.129E-02
 bond charge predicted
       N       E                     dE             d eps       ncg     rms          rms(c)
DAV:   1    -0.383954999551E+02   -0.57012E-04   -0.65233E-03  9856   0.445E-01    0.290E-02
DAV:   2    -0.383955057356E+02   -0.57805E-05   -0.17558E-04 12224   0.105E-01    0.174E-02
DAV:   3    -0.383955013487E+02    0.43870E-05   -0.98475E-06 14928   0.275E-02    0.736E-03
DAV:   4    -0.383955006360E+02    0.71267E-06   -0.28030E-06 10640   0.140E-02    0.191E-03
DAV:   5    -0.383955006759E+02   -0.39917E-07   -0.79869E-07 11124   0.689E-03    0.105E-03
DAV:   6    -0.383955006653E+02    0.10597E-07   -0.88081E-08 13064   0.315E-03    0.576E-04
DAV:   7    -0.383955006678E+02   -0.25125E-08   -0.29480E-08  9576   0.123E-03
  35 F= -.38395501E+02 E0= -.38395098E+02  d E =-.577319E-04
 ZBRENT: can't locate minimum, use default step
 trial-energy change:   -0.000058  1 .order   -0.000058   -0.000063   -0.000053
 step:   0.6303(harm=  0.9959)  dis= 0.00206  next Energy=   -38.395641 (dE=-0.198E-03)
 bond charge predicted
       N       E                     dE             d eps       ncg     rms          rms(c)
DAV:   1    -0.383956093083E+02   -0.10864E-03   -0.58707E-02  9856   0.133E+00    0.870E-02
DAV:   2    -0.383956614349E+02   -0.52127E-04   -0.15782E-03 12244   0.315E-01    0.523E-02
DAV:   3    -0.383956214954E+02    0.39939E-04   -0.87831E-05 14756   0.809E-02    0.221E-02
DAV:   4    -0.383956150501E+02    0.64453E-05   -0.25193E-05 10632   0.417E-02    0.575E-03
DAV:   5    -0.383956153393E+02   -0.28923E-06   -0.71435E-06 11152   0.208E-02    0.317E-03
DAV:   6    -0.383956152771E+02    0.62190E-07   -0.79771E-07 14304   0.964E-03    0.175E-03
DAV:   7    -0.383956152902E+02   -0.13085E-07   -0.26349E-07 10920   0.366E-03    0.946E-04
DAV:   8    -0.383956152863E+02    0.39322E-08   -0.80494E-08 10792   0.206E-03
  36 F= -.38395615E+02 E0= -.38395209E+02  d E =-.172350E-03
 curvature:  -1.30 expect dE=-0.128E-02 dE for cont linesearch -0.223E-04
 ZBRENT: increasing intervall
 opt :   1.5758  next Energy=   -38.395579 (dE=-0.136E-03)
 bond charge predicted
       N       E                     dE             d eps       ncg     rms          rms(c)
DAV:   1    -0.383955603001E+02    0.54990E-04   -0.23479E-01  9856   0.267E+00    0.174E-01
DAV:   2    -0.383957682011E+02   -0.20790E-03   -0.63084E-03 12228   0.628E-01    0.105E-01
DAV:   3    -0.383956078139E+02    0.16039E-03   -0.34981E-04 14476   0.160E-01    0.443E-02
DAV:   4    -0.383955818565E+02    0.25957E-04   -0.10047E-04 10700   0.830E-02    0.115E-02
DAV:   5    -0.383955829049E+02   -0.10484E-05   -0.28395E-05 11132   0.417E-02    0.634E-03
DAV:   6    -0.383955826920E+02    0.21287E-06   -0.32015E-06 14332   0.199E-02    0.351E-03
DAV:   7    -0.383955827311E+02   -0.39058E-07   -0.10362E-06 10936   0.740E-03    0.187E-03
DAV:   8    -0.383955827234E+02    0.76484E-08   -0.33191E-07 15492   0.384E-03    0.830E-04
DAV:   9    -0.383955827363E+02   -0.12842E-07   -0.70025E-08 10584   0.248E-03    0.548E-04
DAV:  10    -0.383955827376E+02   -0.13015E-08   -0.28288E-08  8292   0.134E-03
  37 F= -.38395583E+02 E0= -.38395169E+02  d E =-.139802E-03
 curvature:   2.10 expect dE= 0.124E-01 dE for cont linesearch  0.804E-04
 ZBRENT: bracketing found
 ZBRENT: interpolating
 opt :   1.0095  next Energy=   -38.395643 (dE=-0.201E-03)
 bond charge predicted
       N       E                     dE             d eps       ncg     rms          rms(c)
DAV:   1    -0.383956354521E+02   -0.52716E-04   -0.84285E-02  9856   0.160E+00    0.104E-01
DAV:   2    -0.383957108233E+02   -0.75371E-04   -0.22735E-03 12228   0.380E-01    0.628E-02
DAV:   3    -0.383956528810E+02    0.57942E-04   -0.12712E-04 14936   0.999E-02    0.265E-02
DAV:   4    -0.383956434329E+02    0.94480E-05   -0.37233E-05 10468   0.512E-02    0.683E-03
DAV:   5    -0.383956437934E+02   -0.36049E-06   -0.10551E-05 11136   0.253E-02    0.379E-03
DAV:   6    -0.383956437454E+02    0.48016E-07   -0.11765E-06 14552   0.115E-02    0.206E-03
DAV:   7    -0.383956437457E+02   -0.29331E-09   -0.38669E-07 10900   0.438E-03    0.116E-03
DAV:   8    -0.383956437444E+02    0.12597E-08   -0.13606E-07 12996   0.241E-03    0.517E-04
DAV:   9    -0.383956437452E+02   -0.73396E-09   -0.28825E-08  9236   0.127E-03
  38 F= -.38395644E+02 E0= -.38395235E+02  d E =-.200809E-03
 curvature:  -0.74 expect dE=-0.175E-02 dE for cont linesearch -0.878E-10
 trial: gam= 5.96421 g(F)=  0.213E-02 g(S)=  0.239E-03 ort = 0.392E-06 (trialstep = 0.877E-02)
 search vector abs. value=  0.482E-01
 bond charge predicted
       N       E                     dE             d eps       ncg     rms          rms(c)
DAV:   1    -0.383956637733E+02   -0.20029E-04   -0.75092E-04  9856   0.155E-01    0.107E-02
DAV:   2    -0.383956643808E+02   -0.60752E-06   -0.23596E-05 10776   0.443E-02    0.631E-03
DAV:   3    -0.383956640107E+02    0.37009E-06   -0.18557E-06 12756   0.138E-02    0.296E-03
DAV:   4    -0.383956638901E+02    0.12060E-06   -0.41735E-07 10736   0.699E-03    0.633E-04
DAV:   5    -0.383956639020E+02   -0.11875E-07   -0.14402E-07 10932   0.324E-03    0.351E-04
DAV:   6    -0.383956638989E+02    0.30650E-08   -0.10574E-08  5644   0.136E-03
  39 F= -.38395664E+02 E0= -.38395256E+02  d E =-.201538E-04
 ZBRENT: can't locate minimum, use default step
 trial-energy change:   -0.000020  1 .order   -0.000020   -0.000021   -0.000019
 step:   0.0351(harm=  0.1261)  dis= 0.00070  next Energy=   -38.395793 (dE=-0.150E-03)
 bond charge predicted
       N       E                     dE             d eps       ncg     rms          rms(c)
DAV:   1    -0.383957141584E+02   -0.50256E-04   -0.67592E-03  9856   0.464E-01    0.319E-02
DAV:   2    -0.383957194933E+02   -0.53349E-05   -0.21144E-04 10788   0.133E-01    0.189E-02
DAV:   3    -0.383957156577E+02    0.38356E-05   -0.16678E-05 12804   0.414E-02    0.884E-03
DAV:   4    -0.383957144849E+02    0.11727E-05   -0.37803E-06 10836   0.212E-02    0.186E-03
DAV:   5    -0.383957145829E+02   -0.97924E-07   -0.12834E-06 10836   0.984E-03    0.105E-03
DAV:   6    -0.383957145727E+02    0.10114E-07   -0.12186E-07 12996   0.417E-03    0.615E-04
DAV:   7    -0.383957145651E+02    0.76166E-08   -0.30517E-08  9328   0.252E-03
  40 F= -.38395715E+02 E0= -.38395308E+02  d E =-.708200E-04
 curvature:  -0.51 expect dE=-0.652E-03 dE for cont linesearch -0.319E-04
 ZBRENT: increasing intervall
 opt :   0.0877  next Energy=   -38.395781 (dE=-0.137E-03)
 bond charge predicted
       N       E                     dE             d eps       ncg     rms          rms(c)
DAV:   1    -0.383957835536E+02   -0.68981E-04   -0.27028E-02  9856   0.927E-01    0.638E-02
DAV:   2    -0.383958046955E+02   -0.21142E-04   -0.84432E-04 10788   0.265E-01    0.378E-02
DAV:   3    -0.383957888638E+02    0.15832E-04   -0.66636E-05 12780   0.822E-02    0.177E-02
DAV:   4    -0.383957840876E+02    0.47762E-05   -0.15061E-05 10848   0.420E-02    0.375E-03
DAV:   5    -0.383957844671E+02   -0.37953E-06   -0.51579E-06 10828   0.194E-02    0.211E-03
DAV:   6    -0.383957844439E+02    0.23200E-07   -0.47943E-07 13196   0.787E-03    0.123E-03
DAV:   7    -0.383957844299E+02    0.14062E-07   -0.12642E-07 10796   0.478E-03    0.648E-04
DAV:   8    -0.383957844257E+02    0.42210E-08   -0.38173E-08  9836   0.278E-03
  41 F= -.38395784E+02 E0= -.38395381E+02  d E =-.140680E-03
 curvature:  -1.06 expect dE=-0.329E-03 dE for cont linesearch -0.135E-04
 ZBRENT: increasing intervall
 opt :   0.1928  next Energy=   -38.395766 (dE=-0.122E-03)
 bond charge predicted
       N       E                     dE             d eps       ncg     rms          rms(c)
DAV:   1    -0.383957666424E+02    0.17787E-04   -0.10811E-01  9856   0.185E+00    0.128E-01
DAV:   2    -0.383958504439E+02   -0.83802E-04   -0.33727E-03 10780   0.528E-01    0.756E-02
DAV:   3    -0.383957860672E+02    0.64377E-04   -0.26578E-04 12836   0.164E-01    0.353E-02
DAV:   4    -0.383957667528E+02    0.19314E-04   -0.59851E-05 10876   0.841E-02    0.749E-03
DAV:   5    -0.383957682324E+02   -0.14797E-05   -0.20565E-05 10816   0.391E-02    0.423E-03
DAV:   6    -0.383957681805E+02    0.51951E-07   -0.19466E-06 13188   0.160E-02    0.247E-03
DAV:   7    -0.383957681566E+02    0.23864E-07   -0.50840E-07 11032   0.964E-03    0.130E-03
DAV:   8    -0.383957681425E+02    0.14125E-07   -0.16757E-07 13820   0.553E-03    0.521E-04
DAV:   9    -0.383957681470E+02   -0.45065E-08   -0.53354E-08 10340   0.243E-03
  42 F= -.38395768E+02 E0= -.38395371E+02  d E =-.124402E-03
 curvature:   1.46 expect dE= 0.114E-02 dE for cont linesearch  0.380E-04
 ZBRENT: bracketing found
 ZBRENT: interpolating
 opt :   0.1309  next Energy=   -38.395801 (dE=-0.158E-03)
 bond charge predicted
       N       E                     dE             d eps       ncg     rms          rms(c)
DAV:   1    -0.383958023088E+02   -0.34166E-04   -0.37556E-02  9856   0.109E+00    0.753E-02
DAV:   2    -0.383958320175E+02   -0.29709E-04   -0.11809E-03 10792   0.315E-01    0.447E-02
DAV:   3    -0.383958087715E+02    0.23246E-04   -0.93593E-05 12756   0.985E-02    0.209E-02
DAV:   4    -0.383958018014E+02    0.69701E-05   -0.21239E-05 10792   0.499E-02    0.444E-03
DAV:   5    -0.383958022957E+02   -0.49435E-06   -0.72286E-06 10892   0.228E-02    0.248E-03
DAV:   6    -0.383958023122E+02   -0.16520E-07   -0.66988E-07 13168   0.951E-03    0.146E-03
DAV:   7    -0.383958023344E+02   -0.22213E-07   -0.17760E-07 11120   0.577E-03    0.774E-04
DAV:   8    -0.383958023309E+02    0.35229E-08   -0.58051E-08 11892   0.322E-03
  43 F= -.38395802E+02 E0= -.38395401E+02  d E =-.158586E-03
 curvature:  -0.65 expect dE=-0.724E-04 dE for cont linesearch -0.204E-08
 trial: gam= 0.04640 g(F)=  0.821E-04 g(S)=  0.297E-04 ort = 0.123E-04 (trialstep = 0.332E-01)
 search vector abs. value=  0.217E-03
 bond charge predicted
       N       E                     dE             d eps       ncg     rms          rms(c)
DAV:   1    -0.383958060436E+02   -0.37092E-05   -0.46482E-05  9896   0.399E-02    0.284E-03
DAV:   2    -0.383958060941E+02   -0.50433E-07   -0.17473E-06 10832   0.129E-02    0.159E-03
DAV:   3    -0.383958060529E+02    0.41160E-07   -0.14809E-07 12016   0.430E-03    0.832E-04
DAV:   4    -0.383958060330E+02    0.19909E-07   -0.24090E-08  7420   0.228E-03    0.203E-04
DAV:   5    -0.383958060309E+02    0.20532E-08   -0.12249E-08  5192   0.138E-03
  44 F= -.38395806E+02 E0= -.38395405E+02  d E =-.370003E-05
 ZBRENT: can't locate minimum, use default step
 trial-energy change:   -0.000004  1 .order   -0.000004   -0.000004   -0.000004
 step:   0.1327(harm=  2.0814)  dis= 0.00013  next Energy=   -38.395919 (dE=-0.117E-03)
 bond charge predicted
       N       E                     dE             d eps       ncg     rms          rms(c)
DAV:   1    -0.383958167774E+02   -0.10744E-04   -0.41823E-04  9892   0.120E-01    0.851E-03
DAV:   2    -0.383958171825E+02   -0.40518E-06   -0.15885E-05 10868   0.392E-02    0.476E-03
DAV:   3    -0.383958169288E+02    0.25371E-06   -0.13572E-06 12056   0.134E-02    0.250E-03
DAV:   4    -0.383958168113E+02    0.11758E-06   -0.26379E-07 12252   0.716E-03    0.652E-04
DAV:   5    -0.383958168061E+02    0.51268E-08   -0.98410E-08 10628   0.362E-03
  45 F= -.38395817E+02 E0= -.38395416E+02  d E =-.144752E-04
 curvature:  -0.19 expect dE=-0.193E-04 dE for cont linesearch -0.976E-05
 ZBRENT: increasing intervall
 opt :   0.3318  next Energy=   -38.395837 (dE=-0.344E-04)
 bond charge predicted
       N       E                     dE             d eps       ncg     rms          rms(c)
DAV:   1    -0.383958366884E+02   -0.19877E-04   -0.16735E-03  9892   0.240E-01    0.170E-02
DAV:   2    -0.383958382451E+02   -0.15568E-05   -0.63544E-05 10868   0.783E-02    0.955E-03
DAV:   3    -0.383958373342E+02    0.91095E-06   -0.54210E-06 12064   0.268E-02    0.502E-03
DAV:   4    -0.383958369156E+02    0.41857E-06   -0.10602E-06 12276   0.143E-02    0.130E-03
DAV:   5    -0.383958369125E+02    0.31418E-08   -0.39533E-07 10736   0.726E-03    0.586E-04
DAV:   6    -0.383958369172E+02   -0.47394E-08   -0.63621E-08 11192   0.325E-03
  46 F= -.38395837E+02 E0= -.38395437E+02  d E =-.345863E-04
 curvature:  -0.39 expect dE=-0.372E-04 dE for cont linesearch -0.164E-04
 ZBRENT: increasing intervall
 opt :   0.7300  next Energy=   -38.395871 (dE=-0.687E-04)
 bond charge predicted
       N       E                     dE             d eps       ncg     rms          rms(c)
DAV:   1    -0.383958702637E+02   -0.33351E-04   -0.66926E-03  9888   0.480E-01    0.340E-02
DAV:   2    -0.383958763139E+02   -0.60502E-05   -0.25383E-04 10852   0.158E-01    0.191E-02
DAV:   3    -0.383958728777E+02    0.34362E-05   -0.21772E-05 12032   0.544E-02    0.100E-02
DAV:   4    -0.383958713207E+02    0.15570E-05   -0.42322E-06 12160   0.294E-02    0.263E-03
DAV:   5    -0.383958713391E+02   -0.18390E-07   -0.16057E-06 10728   0.147E-02    0.117E-03
DAV:   6    -0.383958713508E+02   -0.11668E-07   -0.26145E-07 12948   0.648E-03    0.689E-04
DAV:   7    -0.383958713599E+02   -0.91140E-08   -0.46643E-08  9912   0.354E-03
  47 F= -.38395871E+02 E0= -.38395474E+02  d E =-.690290E-04
 curvature:  -0.81 expect dE=-0.964E-04 dE for cont linesearch -0.217E-04
 ZBRENT: increasing intervall
 opt :   1.5264  next Energy=   -38.395917 (dE=-0.114E-03)
 bond charge predicted
       N       E                     dE             d eps       ncg     rms          rms(c)
DAV:   1    -0.383959124176E+02   -0.41067E-04   -0.26770E-02  9888   0.959E-01    0.680E-02
DAV:   2    -0.383959361976E+02   -0.23780E-04   -0.10146E-03 10852   0.314E-01    0.381E-02
DAV:   3    -0.383959229339E+02    0.13264E-04   -0.87178E-05 12040   0.108E-01    0.200E-02
DAV:   4    -0.383959169227E+02    0.60112E-05   -0.16881E-05 12192   0.583E-02    0.525E-03
DAV:   5    -0.383959170514E+02   -0.12866E-06   -0.63833E-06 10752   0.291E-02    0.235E-03
DAV:   6    -0.383959170835E+02   -0.32164E-07   -0.10405E-06 12996   0.129E-02    0.138E-03
DAV:   7    -0.383959171001E+02   -0.16565E-07   -0.19155E-07 12464   0.706E-03    0.724E-04
DAV:   8    -0.383959171193E+02   -0.19146E-07   -0.78719E-08 13032   0.252E-03    0.357E-04
DAV:   9    -0.383959171229E+02   -0.36503E-08   -0.88106E-09  5600   0.130E-03
  48 F= -.38395917E+02 E0= -.38395524E+02  d E =-.114792E-03
 curvature:  -1.69 expect dE=-0.518E-03 dE for cont linesearch -0.113E-04
 ZBRENT: increasing intervall
 opt :   3.1192  next Energy=   -38.395917 (dE=-0.115E-03)
 bond charge predicted
       N       E                     dE             d eps       ncg     rms          rms(c)
DAV:   1    -0.383958941388E+02    0.22980E-04   -0.10707E-01  9888   0.192E+00    0.136E-01
DAV:   2    -0.383959895591E+02   -0.95420E-04   -0.40574E-03 10840   0.629E-01    0.763E-02
DAV:   3    -0.383959374286E+02    0.52131E-04   -0.34934E-04 12040   0.216E-01    0.399E-02
DAV:   4    -0.383959138498E+02    0.23579E-04   -0.67305E-05 12192   0.117E-01    0.104E-02
DAV:   5    -0.383959145059E+02   -0.65607E-06   -0.25398E-05 10780   0.581E-02    0.467E-03
DAV:   6    -0.383959146056E+02   -0.99674E-07   -0.40981E-06 12968   0.256E-02    0.274E-03
DAV:   7    -0.383959146347E+02   -0.29094E-07   -0.75926E-07 12536   0.140E-02    0.143E-03
DAV:   8    -0.383959146846E+02   -0.49928E-07   -0.31393E-07 14992   0.499E-03    0.713E-04
DAV:   9    -0.383959146921E+02   -0.74951E-08   -0.35860E-08  9532   0.243E-03
  49 F= -.38395915E+02 E0= -.38395529E+02  d E =-.112361E-03
 curvature:  -0.01 expect dE=-0.790E-05 dE for cont linesearch -0.456E-07
 trial: gam= 0.00000 g(F)=  0.117E-02 g(S)=  0.768E-04 ort =-0.394E-04 (trialstep = 0.113E+00)
 search vector abs. value=  0.124E-02
 bond charge predicted
       N       E                     dE             d eps       ncg     rms          rms(c)
DAV:   1    -0.383959526568E+02   -0.37972E-04   -0.39032E-03  9856   0.313E-01    0.243E-02
DAV:   2    -0.383959640978E+02   -0.11441E-04   -0.21195E-04 11160   0.938E-02    0.188E-02
DAV:   3    -0.383959597816E+02    0.43162E-05   -0.16478E-05 11584   0.275E-02    0.102E-02
DAV:   4    -0.383959593576E+02    0.42402E-06   -0.34952E-06 10544   0.143E-02    0.461E-03
DAV:   5    -0.383959592766E+02    0.80948E-07   -0.56601E-07 13388   0.811E-03    0.132E-03
DAV:   6    -0.383959592752E+02    0.14593E-08   -0.13544E-07 10792   0.305E-03    0.433E-04
DAV:   7    -0.383959592801E+02   -0.49472E-08   -0.25672E-08  9540   0.129E-03
  50 F= -.38395959E+02 E0= -.38395565E+02  d E =-.445880E-04
 trial-energy change:   -0.000045  1 .order   -0.000045   -0.000141    0.000051
 step:   0.0830(harm=  0.0832)  dis= 0.00038  next Energy=   -38.395966 (dE=-0.514E-04)
 bond charge predicted
       N       E                     dE             d eps       ncg     rms          rms(c)
DAV:   1    -0.383959655746E+02   -0.62995E-05   -0.27926E-04  9856   0.837E-02    0.655E-03
DAV:   2    -0.383959664560E+02   -0.88134E-06   -0.14979E-05 11128   0.251E-02    0.504E-03
DAV:   3    -0.383959661944E+02    0.26162E-06   -0.12267E-06 11560   0.746E-03    0.269E-03
DAV:   4    -0.383959661561E+02    0.38298E-07   -0.25136E-07 10568   0.391E-03    0.123E-03
DAV:   5    -0.383959661498E+02    0.63078E-08   -0.37866E-08 10416   0.222E-03
  51 F= -.38395966E+02 E0= -.38395574E+02  d E =-.514577E-04
 curvature:  -0.04 expect dE=-0.810E-05 dE for cont linesearch -0.742E-10
 trial: gam= 0.15538 g(F)=  0.144E-03 g(S)=  0.507E-04 ort = 0.149E-05 (trialstep = 0.107E+00)
 search vector abs. value=  0.225E-03
 bond charge predicted
       N       E                     dE             d eps       ncg     rms          rms(c)
DAV:   1    -0.383959871769E+02   -0.21021E-04   -0.53869E-04 10220   0.158E-01    0.157E-02
DAV:   2    -0.383959861848E+02    0.99209E-06   -0.46025E-05 10892   0.752E-02    0.811E-03
DAV:   3    -0.383959858431E+02    0.34174E-06   -0.37193E-06 13216   0.204E-02    0.393E-03
DAV:   4    -0.383959856529E+02    0.19020E-06   -0.78891E-07 13084   0.101E-02    0.124E-03
DAV:   5    -0.383959856850E+02   -0.32164E-07   -0.26601E-07 10704   0.406E-03    0.465E-04
DAV:   6    -0.383959856815E+02    0.35684E-08   -0.44009E-08 10692   0.182E-03
  52 F= -.38395986E+02 E0= -.38395594E+02  d E =-.195317E-04
 trial-energy change:   -0.000020  1 .order   -0.000019   -0.000021   -0.000018
 step:   0.4271(harm=  0.7484)  dis= 0.00066  next Energy=   -38.396016 (dE=-0.496E-04)
 bond charge predicted
       N       E                     dE             d eps       ncg     rms          rms(c)
DAV:   1    -0.383960418891E+02   -0.56204E-04   -0.47891E-03 10224   0.470E-01    0.467E-02
DAV:   2    -0.383960331999E+02    0.86892E-05   -0.40823E-04 10888   0.224E-01    0.242E-02
DAV:   3    -0.383960292988E+02    0.39011E-05   -0.33150E-05 13248   0.611E-02    0.117E-02
DAV:   4    -0.383960271546E+02    0.21442E-05   -0.69798E-06 12988   0.301E-02    0.368E-03
DAV:   5    -0.383960272491E+02   -0.94537E-07   -0.23587E-06 10704   0.122E-02    0.137E-03
DAV:   6    -0.383960272320E+02    0.17093E-07   -0.40546E-07 14260   0.558E-03    0.849E-04
DAV:   7    -0.383960272212E+02    0.10823E-07   -0.82174E-08 12288   0.337E-03    0.359E-04
DAV:   8    -0.383960272164E+02    0.48008E-08   -0.23393E-08  8468   0.143E-03
  53 F= -.38396027E+02 E0= -.38395634E+02  d E =-.610666E-04
 curvature:  -0.32 expect dE=-0.171E-04 dE for cont linesearch -0.117E-04
 ZBRENT: increasing intervall
 opt :   1.0666  next Energy=   -38.396036 (dE=-0.694E-04)
 bond charge predicted
       N       E                     dE             d eps       ncg     rms          rms(c)
DAV:   1    -0.383960947471E+02   -0.67526E-04   -0.19148E-02 10224   0.939E-01    0.935E-02
DAV:   2    -0.383960603524E+02    0.34395E-04   -0.16363E-03 10884   0.448E-01    0.485E-02
DAV:   3    -0.383960439094E+02    0.16443E-04   -0.13290E-04 13240   0.123E-01    0.235E-02
DAV:   4    -0.383960348580E+02    0.90514E-05   -0.28133E-05 12996   0.604E-02    0.739E-03
DAV:   5    -0.383960350407E+02   -0.18269E-06   -0.94895E-06 10704   0.244E-02    0.277E-03
DAV:   6    -0.383960349858E+02    0.54874E-07   -0.16655E-06 14252   0.112E-02    0.172E-03
DAV:   7    -0.383960349513E+02    0.34493E-07   -0.33830E-07 13068   0.675E-03    0.727E-04
DAV:   8    -0.383960349443E+02    0.70404E-08   -0.10237E-07 13324   0.286E-03    0.467E-04
DAV:   9    -0.383960349353E+02    0.90213E-08   -0.14239E-08  6004   0.162E-03
  54 F= -.38396035E+02 E0= -.38395641E+02  d E =-.687855E-04
 curvature:  -0.23 expect dE=-0.216E-04 dE for cont linesearch -0.469E-05
 ZBRENT: bracketing found
 ZBRENT: interpolating
 opt :   0.7929  next Energy=   -38.396044 (dE=-0.780E-04)
 bond charge predicted
       N       E                     dE             d eps       ncg     rms          rms(c)
DAV:   1    -0.383960556975E+02   -0.20753E-04   -0.35099E-03 10224   0.403E-01    0.400E-02
DAV:   2    -0.383960495448E+02    0.61526E-05   -0.29995E-04 10884   0.192E-01    0.208E-02
DAV:   3    -0.383960459929E+02    0.35519E-05   -0.24393E-05 13304   0.523E-02    0.100E-02
DAV:   4    -0.383960440454E+02    0.19474E-05   -0.51039E-06 12948   0.258E-02    0.318E-03
DAV:   5    -0.383960439566E+02    0.88835E-07   -0.17340E-06 10704   0.104E-02    0.118E-03
DAV:   6    -0.383960439533E+02    0.33365E-08   -0.30200E-07 14152   0.481E-03    0.734E-04
DAV:   7    -0.383960439526E+02    0.62073E-09   -0.59490E-08 11264   0.286E-03
  55 F= -.38396044E+02 E0= -.38395651E+02  d E =-.778029E-04
 curvature:  -0.46 expect dE=-0.174E-04 dE for cont linesearch -0.525E-08
 trial: gam= 0.18527 g(F)=  0.305E-04 g(S)=  0.745E-05 ort = 0.161E-05 (trialstep = 0.244E+00)
 search vector abs. value=  0.463E-04
 bond charge predicted
       N       E                     dE             d eps       ncg     rms          rms(c)
DAV:   1    -0.383960534202E+02   -0.94669E-05   -0.51920E-04  9996   0.128E-01    0.831E-03
DAV:   2    -0.383960536104E+02   -0.19017E-06   -0.12032E-05 12984   0.347E-02    0.484E-03
DAV:   3    -0.383960532312E+02    0.37916E-06   -0.94817E-07 12392   0.144E-02    0.231E-03
DAV:   4    -0.383960531498E+02    0.81348E-07   -0.28596E-07 10816   0.713E-03    0.548E-04
DAV:   5    -0.383960531575E+02   -0.77052E-08   -0.94077E-08 11184   0.225E-03
  56 F= -.38396053E+02 E0= -.38395660E+02  d E =-.920490E-05
 ZBRENT: can't locate minimum, use default step
 trial-energy change:   -0.000009  1 .order   -0.000009   -0.000009   -0.000009
 step:   0.9776(harm=  5.5798)  dis= 0.00043  next Energy=   -38.396151 (dE=-0.107E-03)
 bond charge predicted
       N       E                     dE             d eps       ncg     rms          rms(c)
DAV:   1    -0.383960807524E+02   -0.27603E-04   -0.46739E-03 10000   0.384E-01    0.249E-02
DAV:   2    -0.383960823841E+02   -0.16317E-05   -0.10835E-04 12948   0.103E-01    0.145E-02
DAV:   3    -0.383960791534E+02    0.32307E-05   -0.87530E-06 12488   0.422E-02    0.694E-03
DAV:   4    -0.383960784523E+02    0.70110E-06   -0.25191E-06 10932   0.213E-02    0.171E-03
DAV:   5    -0.383960785056E+02   -0.53302E-07   -0.87037E-07 11524   0.688E-03    0.937E-04
DAV:   6    -0.383960785028E+02    0.28695E-08   -0.58273E-08 10804   0.354E-03
  57 F= -.38396079E+02 E0= -.38395686E+02  d E =-.345501E-04
 curvature:  -0.86 expect dE=-0.271E-04 dE for cont linesearch -0.189E-04
 ZBRENT: increasing intervall
 opt :   2.4439  next Energy=   -38.396118 (dE=-0.743E-04)
 bond charge predicted
       N       E                     dE             d eps       ncg     rms          rms(c)
DAV:   1    -0.383961267011E+02   -0.48195E-04   -0.18698E-02 10000   0.768E-01    0.499E-02
DAV:   2    -0.383961331069E+02   -0.64058E-05   -0.43457E-04 12924   0.208E-01    0.290E-02
DAV:   3    -0.383961202423E+02    0.12865E-04   -0.35180E-05 12488   0.855E-02    0.139E-02
DAV:   4    -0.383961174795E+02    0.27627E-05   -0.10244E-05 11024   0.429E-02    0.338E-03
DAV:   5    -0.383961176820E+02   -0.20247E-06   -0.34845E-06 11524   0.137E-02    0.187E-03
DAV:   6    -0.383961176649E+02    0.17138E-07   -0.22912E-07 11940   0.701E-03    0.114E-03
DAV:   7    -0.383961176852E+02   -0.20331E-07   -0.16071E-07 10780   0.290E-03    0.597E-04
DAV:   8    -0.383961176820E+02    0.31914E-08   -0.25771E-08  7800   0.211E-03
  58 F= -.38396118E+02 E0= -.38395725E+02  d E =-.737293E-04
 curvature:  -1.81 expect dE=-0.762E-04 dE for cont linesearch -0.208E-04
 ZBRENT: increasing intervall
 opt :   5.3766  next Energy=   -38.396160 (dE=-0.116E-03)
 bond charge predicted
       N       E                     dE             d eps       ncg     rms          rms(c)
DAV:   1    -0.383961943200E+02   -0.76635E-04   -0.74776E-02 10000   0.154E+00    0.997E-02
DAV:   2    -0.383962196108E+02   -0.25291E-04   -0.17372E-03 12908   0.416E-01    0.579E-02
DAV:   3    -0.383961688473E+02    0.50763E-04   -0.14309E-04 12464   0.171E-01    0.278E-02
DAV:   4    -0.383961579214E+02    0.10926E-04   -0.40946E-05 11040   0.864E-02    0.687E-03
DAV:   5    -0.383961586850E+02   -0.76365E-06   -0.14168E-05 11560   0.276E-02    0.377E-03
DAV:   6    -0.383961586046E+02    0.80398E-07   -0.96693E-07 12024   0.142E-02    0.229E-03
DAV:   7    -0.383961586511E+02   -0.46495E-07   -0.67560E-07 11000   0.596E-03    0.125E-03
DAV:   8    -0.383961586355E+02    0.15654E-07   -0.12404E-07 13124   0.440E-03    0.555E-04
DAV:   9    -0.383961586448E+02   -0.93041E-08   -0.70260E-08 10260   0.182E-03
  59 F= -.38396159E+02 E0= -.38395768E+02  d E =-.114692E-03
 curvature:  -3.65 expect dE=-0.499E-03 dE for cont linesearch -0.172E-05
 trial: gam= 3.48633 g(F)=  0.128E-03 g(S)=  0.919E-05 ort = 0.467E-05 (trialstep = 0.804E-01)
 search vector abs. value=  0.732E-03
 bond charge predicted
       N       E                     dE             d eps       ncg     rms          rms(c)
DAV:   1    -0.383961673876E+02   -0.87522E-05   -0.90673E-04  9924   0.169E-01    0.111E-02
DAV:   2    -0.383961676448E+02   -0.25723E-06   -0.21816E-05 11564   0.451E-02    0.691E-03
DAV:   3    -0.383961669242E+02    0.72067E-06   -0.23876E-06 12044   0.170E-02    0.321E-03
DAV:   4    -0.383961667957E+02    0.12846E-06   -0.56758E-07 10632   0.971E-03    0.983E-04
DAV:   5    -0.383961668045E+02   -0.88216E-08   -0.17252E-07 11708   0.411E-03    0.470E-04
DAV:   6    -0.383961668073E+02   -0.27817E-08   -0.26425E-08  8756   0.286E-03
  60 F= -.38396167E+02 E0= -.38395775E+02  d E =-.816255E-05
 trial-energy change:   -0.000008  1 .order   -0.000010   -0.000012   -0.000007
 step:   0.1859(harm=  0.1859)  dis= 0.00035  next Energy=   -38.396173 (dE=-0.142E-04)
 bond charge predicted
       N       E                     dE             d eps       ncg     rms          rms(c)
DAV:   1    -0.383961724201E+02   -0.56156E-05   -0.15649E-03  9924   0.222E-01    0.147E-02
DAV:   2    -0.383961728941E+02   -0.47398E-06   -0.37952E-05 11528   0.597E-02    0.912E-03
DAV:   3    -0.383961716728E+02    0.12213E-05   -0.41614E-06 11984   0.226E-02    0.425E-03
DAV:   4    -0.383961714527E+02    0.22015E-06   -0.99801E-07 10620   0.128E-02    0.131E-03
DAV:   5    -0.383961714654E+02   -0.12735E-07   -0.30799E-07 11724   0.548E-03    0.627E-04
DAV:   6    -0.383961714683E+02   -0.28549E-08   -0.48270E-08 10556   0.378E-03
  61 F= -.38396171E+02 E0= -.38395777E+02  d E =-.128235E-04
 curvature:  -0.44 expect dE=-0.942E-04 dE for cont linesearch -0.700E-09
 trial: gam= 1.66756 g(F)=  0.183E-03 g(S)=  0.286E-04 ort = 0.107E-05 (trialstep = 0.330E-01)
 search vector abs. value=  0.225E-02
 bond charge predicted
       N       E                     dE             d eps       ncg     rms          rms(c)
DAV:   1    -0.383961783881E+02   -0.69227E-05   -0.48107E-04  9868   0.121E-01    0.676E-03
DAV:   2    -0.383961787350E+02   -0.34682E-06   -0.99568E-06 12968   0.275E-02    0.407E-03
DAV:   3    -0.383961785378E+02    0.19720E-06   -0.65583E-07 13624   0.112E-02    0.207E-03
DAV:   4    -0.383961784773E+02    0.60497E-07   -0.17141E-07 10624   0.523E-03    0.594E-04
DAV:   5    -0.383961784791E+02   -0.18813E-08   -0.71156E-08 10948   0.186E-03
  62 F= -.38396178E+02 E0= -.38395784E+02  d E =-.701088E-05
 ZBRENT: can't locate minimum, use default step
 trial-energy change:   -0.000007  1 .order   -0.000007   -0.000007   -0.000007
 step:   0.1320(harm=  1.8579)  dis= 0.00046  next Energy=   -38.396370 (dE=-0.199E-03)
 bond charge predicted
       N       E                     dE             d eps       ncg     rms          rms(c)
DAV:   1    -0.383961977685E+02   -0.19291E-04   -0.43273E-03  9868   0.363E-01    0.202E-02
DAV:   2    -0.383962008953E+02   -0.31268E-05   -0.88472E-05 12972   0.808E-02    0.121E-02
DAV:   3    -0.383961990841E+02    0.18112E-05   -0.59340E-06 13636   0.315E-02    0.614E-03
DAV:   4    -0.383961985399E+02    0.54424E-06   -0.15007E-06 10896   0.155E-02    0.182E-03
DAV:   5    -0.383961985490E+02   -0.91359E-08   -0.63010E-07 11420   0.564E-03    0.795E-04
DAV:   6    -0.383961985477E+02    0.13133E-08   -0.68716E-08 11100   0.309E-03
  63 F= -.38396199E+02 E0= -.38395804E+02  d E =-.270795E-04
 curvature:  -1.03 expect dE=-0.241E-03 dE for cont linesearch -0.175E-04
 ZBRENT: increasing intervall
 opt :   0.3299  next Energy=   -38.396234 (dE=-0.628E-04)
 bond charge predicted
       N       E                     dE             d eps       ncg     rms          rms(c)
DAV:   1    -0.383962313077E+02   -0.32759E-04   -0.17310E-02  9868   0.725E-01    0.404E-02
DAV:   2    -0.383962439731E+02   -0.12665E-04   -0.35405E-04 12968   0.161E-01    0.243E-02
DAV:   3    -0.383962365995E+02    0.73737E-05   -0.23392E-05 13724   0.631E-02    0.123E-02
DAV:   4    -0.383962344167E+02    0.21828E-05   -0.60370E-06 10768   0.310E-02    0.361E-03
DAV:   5    -0.383962344601E+02   -0.43428E-07   -0.25368E-06 11500   0.114E-02    0.160E-03
DAV:   6    -0.383962344504E+02    0.96802E-08   -0.27395E-07 11864   0.614E-03    0.968E-04
DAV:   7    -0.383962344487E+02    0.17508E-08   -0.12021E-07 11088   0.279E-03    0.575E-04
DAV:   8    -0.383962344472E+02    0.14215E-08   -0.18148E-08  5792   0.212E-03
  64 F= -.38396234E+02 E0= -.38395839E+02  d E =-.629790E-04
 curvature:  -2.11 expect dE=-0.585E-03 dE for cont linesearch -0.264E-04
 ZBRENT: increasing intervall
 opt :   0.7259  next Energy=   -38.396290 (dE=-0.119E-03)
 bond charge predicted
       N       E                     dE             d eps       ncg     rms          rms(c)
DAV:   1    -0.383962769533E+02   -0.42505E-04   -0.69225E-02  9868   0.145E+00    0.808E-02
DAV:   2    -0.383963274741E+02   -0.50521E-04   -0.14142E-03 13016   0.322E-01    0.485E-02
DAV:   3    -0.383962978778E+02    0.29596E-04   -0.93771E-05 13668   0.126E-01    0.246E-02
DAV:   4    -0.383962891696E+02    0.87082E-05   -0.24232E-05 10872   0.619E-02    0.735E-03
DAV:   5    -0.383962893190E+02   -0.14938E-06   -0.10281E-05 11512   0.227E-02    0.322E-03
DAV:   6    -0.383962892674E+02    0.51617E-07   -0.11109E-06 11984   0.122E-02    0.194E-03
DAV:   7    -0.383962892724E+02   -0.50518E-08   -0.49869E-07 11400   0.559E-03    0.117E-03
DAV:   8    -0.383962892642E+02    0.82673E-08   -0.93044E-08 12956   0.427E-03
  65 F= -.38396289E+02 E0= -.38395892E+02  d E =-.117796E-03
 curvature:  -4.45 expect dE=-0.180E-02 dE for cont linesearch -0.242E-04
 ZBRENT: increasing intervall
 opt :   1.5177  next Energy=   -38.396332 (dE=-0.160E-03)
 bond charge predicted
       N       E                     dE             d eps       ncg     rms          rms(c)
DAV:   1    -0.383962800811E+02    0.91914E-05   -0.27688E-01  9868   0.290E+00    0.162E-01
DAV:   2    -0.383964823227E+02   -0.20224E-03   -0.56520E-03 13100   0.644E-01    0.970E-02
DAV:   3    -0.383963629684E+02    0.11935E-03   -0.36714E-04 13556   0.251E-01    0.491E-02
DAV:   4    -0.383963281978E+02    0.34771E-04   -0.97885E-05 10920   0.124E-01    0.147E-02
DAV:   5    -0.383963288070E+02   -0.60920E-06   -0.41139E-05 11488   0.453E-02    0.643E-03
DAV:   6    -0.383963285820E+02    0.22498E-06   -0.43438E-06 12076   0.241E-02    0.386E-03
DAV:   7    -0.383963286212E+02   -0.39270E-07   -0.19785E-06 11008   0.110E-02    0.232E-03
DAV:   8    -0.383963285839E+02    0.37353E-07   -0.36409E-07 13440   0.869E-03    0.998E-04
DAV:   9    -0.383963285888E+02   -0.48949E-08   -0.19199E-07 11840   0.303E-03    0.483E-04
DAV:  10    -0.383963285838E+02    0.49854E-08   -0.14407E-08  5880   0.168E-03
  66 F= -.38396329E+02 E0= -.38395928E+02  d E =-.157116E-03
 curvature:  -7.80 expect dE=-0.638E-02 dE for cont linesearch -0.132E-06
 trial: gam= 2.35866 g(F)=  0.753E-03 g(S)=  0.645E-04 ort =-0.617E-05 (trialstep = 0.558E-01)
 search vector abs. value=  0.133E-01
 bond charge predicted
       N       E                     dE             d eps       ncg     rms          rms(c)
DAV:   1    -0.383963519857E+02   -0.23397E-04   -0.82815E-03  9856   0.508E-01    0.273E-02
DAV:   2    -0.383963628533E+02   -0.10868E-04   -0.21337E-04 11564   0.131E-01    0.163E-02
DAV:   3    -0.383963608611E+02    0.19922E-05   -0.16972E-05 12204   0.446E-02    0.902E-03
DAV:   4    -0.383963599570E+02    0.90406E-06   -0.31264E-06 11104   0.233E-02    0.302E-03
DAV:   5    -0.383963599688E+02   -0.11771E-07   -0.12261E-06 11140   0.117E-02    0.113E-03
DAV:   6    -0.383963599633E+02    0.55179E-08   -0.19948E-07 11856   0.715E-03    0.616E-04
DAV:   7    -0.383963599563E+02    0.70468E-08   -0.70671E-08 11084   0.285E-03
  67 F= -.38396360E+02 E0= -.38395962E+02  d E =-.313725E-04
 trial-energy change:   -0.000031  1 .order   -0.000030   -0.000045   -0.000015
 step:   0.0743(harm=  0.0826)  dis= 0.00063  next Energy=   -38.396362 (dE=-0.339E-04)
 bond charge predicted
       N       E                     dE             d eps       ncg     rms          rms(c)
DAV:   1    -0.383963622953E+02   -0.23320E-05   -0.91549E-04  9856   0.169E-01    0.912E-03
DAV:   2    -0.383963634969E+02   -0.12016E-05   -0.23639E-05 11544   0.435E-02    0.542E-03
DAV:   3    -0.383963633163E+02    0.18054E-06   -0.19186E-06 12188   0.148E-02    0.301E-03
DAV:   4    -0.383963632260E+02    0.90289E-07   -0.34610E-07 11008   0.760E-03    0.103E-03
DAV:   5    -0.383963632291E+02   -0.30350E-08   -0.13874E-07 11336   0.388E-03    0.386E-04
DAV:   6    -0.383963632271E+02    0.19422E-08   -0.19994E-08  6492   0.237E-03
  68 F= -.38396363E+02 E0= -.38395967E+02  d E =-.346433E-04
 curvature:  -0.62 expect dE=-0.557E-04 dE for cont linesearch -0.297E-06
 ZBRENT: extrapolating
 opt :   0.0825  next Energy=   -38.396364 (dE=-0.350E-04)
 bond charge predicted
       N       E                     dE             d eps       ncg     rms          rms(c)
DAV:   1    -0.383963634064E+02   -0.17729E-06   -0.17930E-04  9856   0.748E-02    0.404E-03
DAV:   2    -0.383963636460E+02   -0.23968E-06   -0.46774E-06 11428   0.196E-02    0.241E-03
DAV:   3    -0.383963636229E+02    0.23105E-07   -0.37296E-07 12120   0.680E-03    0.134E-03
DAV:   4    -0.383963636082E+02    0.14697E-07   -0.71101E-08 10684   0.357E-03    0.431E-04
DAV:   5    -0.383963636094E+02   -0.11282E-08   -0.25244E-08  7304   0.185E-03
  69 F= -.38396364E+02 E0= -.38395967E+02  d E =-.350256E-04
[...]
DAV:   3    -0.384287866712E+02    0.27277E-05   -0.29730E-05 12256   0.522E-02    0.141E-02
DAV:   4    -0.384287850003E+02    0.16709E-05   -0.45837E-06 11024   0.224E-02    0.465E-03
DAV:   5    -0.384287848682E+02    0.13211E-06   -0.15222E-06 11604   0.102E-02    0.122E-03
DAV:   6    -0.384287848772E+02   -0.90263E-08   -0.25668E-07 12460   0.629E-03    0.676E-04
DAV:   7    -0.384287848811E+02   -0.38904E-08   -0.45951E-08 10476   0.305E-03
 281 F= -.38428785E+02 E0= -.38428718E+02  d E =-.329972E-04
 trial-energy change:   -0.000033  1 .order   -0.000033   -0.000040   -0.000025
 step:   0.1358(harm=  0.1560)  dis= 0.00096  next Energy=   -38.428803 (dE=-0.506E-04)
 bond charge predicted
       N       E                     dE             d eps       ncg     rms          rms(c)
DAV:   1    -0.384287583529E+02    0.26524E-04   -0.31239E-02  9876   0.976E-01    0.545E-02
DAV:   2    -0.384288127180E+02   -0.54365E-04   -0.85456E-04 11568   0.240E-01    0.322E-02
DAV:   3    -0.384288078967E+02    0.48213E-05   -0.54003E-05 12272   0.702E-02    0.190E-02
DAV:   4    -0.384288049261E+02    0.29706E-05   -0.82725E-06 11024   0.300E-02    0.633E-03
DAV:   5    -0.384288047076E+02    0.21852E-06   -0.27626E-06 11596   0.136E-02    0.164E-03
DAV:   6    -0.384288047213E+02   -0.13733E-07   -0.46907E-07 12408   0.854E-03    0.905E-04
DAV:   7    -0.384288047267E+02   -0.53446E-08   -0.86698E-08 10704   0.413E-03
 282 F= -.38428805E+02 E0= -.38428738E+02  d E =-.528428E-04
 curvature:  -3.16 expect dE=-0.984E-03 dE for cont linesearch -0.880E-06
 ZBRENT: extrapolating
 opt :   0.1562  next Energy=   -38.428806 (dE=-0.538E-04)
 bond charge predicted
       N       E                     dE             d eps       ncg     rms          rms(c)
DAV:   1    -0.384288026599E+02    0.20615E-05   -0.21387E-03  9876   0.255E-01    0.143E-02
DAV:   2    -0.384288064344E+02   -0.37745E-05   -0.58495E-05 11604   0.623E-02    0.839E-03
DAV:   3    -0.384288060605E+02    0.37387E-06   -0.37088E-06 12236   0.180E-02    0.494E-03
DAV:   4    -0.384288058384E+02    0.22211E-06   -0.56063E-07 11012   0.768E-03    0.167E-03
DAV:   5    -0.384288058060E+02    0.32428E-07   -0.19486E-07 11592   0.348E-03    0.435E-04
DAV:   6    -0.384288058084E+02   -0.23915E-08   -0.29208E-08  7956   0.204E-03
 283 F= -.38428806E+02 E0= -.38428738E+02  d E =-.539244E-04
 curvature:  -3.30 expect dE=-0.139E-02 dE for cont linesearch -0.171E-15
 trial: gam= 0.80140 g(F)=  0.333E-03 g(S)=  0.887E-04 ort = 0.123E-08 (trialstep = 0.776E-01)
 search vector abs. value=  0.193E-01
 bond charge predicted
       N       E                     dE             d eps       ncg     rms          rms(c)
DAV:   1    -0.384288141044E+02   -0.82985E-05   -0.20093E-02  9864   0.776E-01    0.448E-02
DAV:   2    -0.384288449142E+02   -0.30810E-04   -0.52026E-04 11644   0.175E-01    0.264E-02
DAV:   3    -0.384288405476E+02    0.43665E-05   -0.28508E-05 12216   0.483E-02    0.152E-02
DAV:   4    -0.384288384613E+02    0.20863E-05   -0.52534E-06 10772   0.217E-02    0.501E-03
DAV:   5    -0.384288383313E+02    0.12999E-06   -0.19999E-06 11608   0.104E-02    0.141E-03
DAV:   6    -0.384288383316E+02   -0.28740E-09   -0.29325E-07 12100   0.643E-03    0.796E-04
DAV:   7    -0.384288383287E+02    0.28522E-08   -0.56147E-08 10668   0.333E-03
 284 F= -.38428838E+02 E0= -.38428771E+02  d E =-.325204E-04
 ZBRENT: can't locate minimum, use default step
 trial-energy change:   -0.000033  1 .order   -0.000031   -0.000033   -0.000029
 step:   0.3104(harm=  0.6103)  dis= 0.00196  next Energy=   -38.428935 (dE=-0.129E-03)
 bond charge predicted
       N       E                     dE             d eps       ncg     rms          rms(c)
DAV:   1    -0.384286857904E+02    0.15254E-03   -0.18069E-01  9864   0.233E+00    0.134E-01
DAV:   2    -0.384289614764E+02   -0.27569E-03   -0.46817E-03 11636   0.526E-01    0.791E-02
DAV:   3    -0.384289232392E+02    0.38237E-04   -0.25911E-04 12208   0.147E-01    0.457E-02
DAV:   4    -0.384289047643E+02    0.18475E-04   -0.47674E-05 10780   0.655E-02    0.151E-02
DAV:   5    -0.384289039666E+02    0.79768E-06   -0.18015E-05 11612   0.314E-02    0.422E-03
DAV:   6    -0.384289039656E+02    0.10100E-08   -0.26830E-06 12104   0.196E-02    0.238E-03
DAV:   7    -0.384289039607E+02    0.48426E-08   -0.52648E-07 11028   0.102E-02    0.129E-03
DAV:   8    -0.384289039620E+02   -0.12597E-08   -0.16194E-07 13456   0.549E-03    0.581E-04
DAV:   9    -0.384289039671E+02   -0.51255E-08   -0.37122E-08 10164   0.262E-03
 285 F= -.38428904E+02 E0= -.38428837E+02  d E =-.981587E-04
 curvature:  -9.52 expect dE=-0.227E-02 dE for cont linesearch -0.212E-04
 ZBRENT: increasing intervall
 opt :   0.7759  next Energy=   -38.428925 (dE=-0.120E-03)
 bond charge predicted
       N       E                     dE             d eps       ncg     rms          rms(c)
DAV:   1    -0.384280442448E+02    0.85972E-03   -0.72180E-01  9864   0.466E+00    0.269E-01
DAV:   2    -0.384291513108E+02   -0.11071E-02   -0.18755E-02 11640   0.106E+00    0.158E-01
DAV:   3    -0.384290007757E+02    0.15054E-03   -0.10567E-03 12216   0.302E-01    0.915E-02
DAV:   4    -0.384289271275E+02    0.73648E-04   -0.19477E-04 10816   0.134E-01    0.301E-02
DAV:   5    -0.384289243090E+02    0.28185E-05   -0.71969E-05 11656   0.636E-02    0.839E-03
DAV:   6    -0.384289243281E+02   -0.19174E-07   -0.10954E-05 12056   0.403E-02    0.475E-03
DAV:   7    -0.384289243363E+02   -0.81968E-08   -0.21981E-06 11364   0.212E-02    0.259E-03
DAV:   8    -0.384289243386E+02   -0.22847E-08   -0.65556E-07 13572   0.111E-02    0.118E-03
DAV:   9    -0.384289243594E+02   -0.20775E-07   -0.15809E-07 11376   0.520E-03    0.566E-04
DAV:  10    -0.384289243654E+02   -0.60281E-08   -0.47319E-08 10796   0.176E-03
 286 F= -.38428924E+02 E0= -.38428859E+02  d E =-.118557E-03
 curvature:  -9.62 expect dE=-0.196E-02 dE for cont linesearch -0.612E-05
 ZBRENT: bracketing found
 ZBRENT: interpolating
 opt :   0.6138  next Energy=   -38.428933 (dE=-0.128E-03)
 bond charge predicted
       N       E                     dE             d eps       ncg     rms          rms(c)
DAV:   1    -0.384288275743E+02    0.96785E-04   -0.87641E-02  9864   0.162E+00    0.933E-02
DAV:   2    -0.384289597333E+02   -0.13216E-03   -0.22629E-03 11640   0.362E-01    0.551E-02
DAV:   3    -0.384289416658E+02    0.18067E-04   -0.12315E-04 12192   0.987E-02    0.317E-02
DAV:   4    -0.384289329422E+02    0.87236E-05   -0.22420E-05 10808   0.445E-02    0.105E-02
DAV:   5    -0.384289327876E+02    0.15459E-06   -0.87021E-06 11568   0.217E-02    0.296E-03
DAV:   6    -0.384289327864E+02    0.11619E-08   -0.12864E-06 12172   0.132E-02    0.168E-03
DAV:   7    -0.384289327910E+02   -0.45752E-08   -0.23555E-07 10828   0.664E-03    0.910E-04
DAV:   8    -0.384289327909E+02    0.12687E-09   -0.77246E-08 12348   0.368E-03
 287 F= -.38428933E+02 E0= -.38428867E+02  d E =-.126982E-03
 curvature: -14.11 expect dE=-0.267E-02 dE for cont linesearch -0.156E-08
 trial: gam=-0.02245 g(F)=  0.157E-03 g(S)=  0.321E-04 ort = 0.146E-05 (trialstep = 0.185E+00)
 search vector abs. value=  0.199E-03
 bond charge predicted
       N       E                     dE             d eps       ncg     rms          rms(c)
DAV:   1    -0.384289617255E+02   -0.28935E-04   -0.13811E-03  9980   0.210E-01    0.152E-02
DAV:   2    -0.384289627334E+02   -0.10079E-05   -0.52704E-05 11432   0.632E-02    0.932E-03
DAV:   3    -0.384289615200E+02    0.12134E-05   -0.42317E-06 13772   0.237E-02    0.468E-03
DAV:   4    -0.384289612209E+02    0.29903E-06   -0.10252E-06 12796   0.163E-02    0.162E-03
DAV:   5    -0.384289611920E+02    0.28973E-07   -0.36836E-07 10784   0.768E-03    0.610E-04
DAV:   6    -0.384289611860E+02    0.59617E-08   -0.88604E-08 11468   0.280E-03
 288 F= -.38428961E+02 E0= -.38428896E+02  d E =-.283951E-04
 trial-energy change:   -0.000028  1 .order   -0.000028   -0.000035   -0.000022
 step:   0.4620(harm=  0.4864)  dis= 0.00038  next Energy=   -38.428978 (dE=-0.449E-04)
 bond charge predicted
       N       E                     dE             d eps       ncg     rms          rms(c)
DAV:   1    -0.384289801127E+02   -0.18921E-04   -0.31072E-03  9984   0.315E-01    0.228E-02
DAV:   2    -0.384289823654E+02   -0.22526E-05   -0.11894E-04 11488   0.962E-02    0.140E-02
DAV:   3    -0.384289796633E+02    0.27021E-05   -0.96055E-06 13860   0.375E-02    0.705E-03
DAV:   4    -0.384289790165E+02    0.64680E-06   -0.23105E-06 12756   0.252E-02    0.244E-03
DAV:   5    -0.384289789722E+02    0.44322E-07   -0.83646E-07 10836   0.116E-02    0.900E-04
DAV:   6    -0.384289789663E+02    0.58690E-08   -0.18867E-07 12000   0.418E-03    0.498E-04
DAV:   7    -0.384289789672E+02   -0.93314E-09   -0.24529E-08  7240   0.234E-03
 289 F= -.38428979E+02 E0= -.38428915E+02  d E =-.461764E-04
 curvature:  -0.25 expect dE=-0.203E-03 dE for cont linesearch -0.120E-06
 trial: gam= 4.16830 g(F)=  0.703E-03 g(S)=  0.953E-04 ort = 0.971E-05 (trialstep = 0.110E-01)
 search vector abs. value=  0.433E-02
 bond charge predicted
       N       E                     dE             d eps       ncg     rms          rms(c)
DAV:   1    -0.384289883419E+02   -0.93756E-05   -0.10071E-04  9984   0.602E-02    0.507E-03
DAV:   2    -0.384289882780E+02    0.63905E-07   -0.46209E-06 11112   0.232E-02    0.273E-03
DAV:   3    -0.384289881533E+02    0.12469E-06   -0.43467E-07 13272   0.709E-03    0.134E-03
DAV:   4    -0.384289881029E+02    0.50433E-07   -0.77848E-08 11648   0.391E-03    0.395E-04
DAV:   5    -0.384289880935E+02    0.93751E-08   -0.34247E-08  9232   0.191E-03
 290 F= -.38428988E+02 E0= -.38428924E+02  d E =-.912630E-05
 ZBRENT: can't locate minimum, use default step
 trial-energy change:   -0.000009  1 .order   -0.000009   -0.000009   -0.000009
 step:   0.0441(harm=  0.4868)  dis= 0.00018  next Energy=   -38.429183 (dE=-0.204E-03)
 bond charge predicted
       N       E                     dE             d eps       ncg     rms          rms(c)
DAV:   1    -0.384290160206E+02   -0.27918E-04   -0.90502E-04  9976   0.181E-01    0.152E-02
DAV:   2    -0.384290153841E+02    0.63648E-06   -0.41493E-05 11192   0.705E-02    0.823E-03
DAV:   3    -0.384290145363E+02    0.84778E-06   -0.38284E-06 13132   0.214E-02    0.404E-03
DAV:   4    -0.384290141895E+02    0.34678E-06   -0.70553E-07 12060   0.120E-02    0.111E-03
DAV:   5    -0.384290141697E+02    0.19812E-07   -0.31035E-07 10664   0.605E-03    0.448E-04
DAV:   6    -0.384290141693E+02    0.37335E-09   -0.44650E-08  9276   0.250E-03
 291 F= -.38429014E+02 E0= -.38428950E+02  d E =-.352021E-04
 curvature:  -0.17 expect dE=-0.105E-03 dE for cont linesearch -0.224E-04
 ZBRENT: increasing intervall
 opt :   0.1102  next Energy=   -38.429060 (dE=-0.814E-04)
 bond charge predicted
       N       E                     dE             d eps       ncg     rms          rms(c)
DAV:   1    -0.384290675044E+02   -0.53335E-04   -0.36209E-03  9980   0.361E-01    0.304E-02
DAV:   2    -0.384290648677E+02    0.26367E-05   -0.16565E-04 11184   0.141E-01    0.164E-02
DAV:   3    -0.384290617547E+02    0.31130E-05   -0.15332E-05 13156   0.430E-02    0.807E-03
DAV:   4    -0.384290605003E+02    0.12544E-05   -0.28168E-06 12052   0.243E-02    0.222E-03
DAV:   5    -0.384290604723E+02    0.27994E-07   -0.12397E-06 10664   0.123E-02    0.898E-04
DAV:   6    -0.384290604760E+02   -0.37057E-08   -0.18805E-07 12204   0.508E-03    0.556E-04
DAV:   7    -0.384290604797E+02   -0.37021E-08   -0.26452E-08  7712   0.306E-03
 292 F= -.38429060E+02 E0= -.38428996E+02  d E =-.815125E-04
 curvature:  -0.35 expect dE=-0.140E-03 dE for cont linesearch -0.329E-04
 ZBRENT: increasing intervall
 opt :   0.2425  next Energy=   -38.429130 (dE=-0.151E-03)
 bond charge predicted
       N       E                     dE             d eps       ncg     rms          rms(c)
DAV:   1    -0.384291571661E+02   -0.96690E-04   -0.14484E-02  9976   0.723E-01    0.607E-02
DAV:   2    -0.384291463150E+02    0.10851E-04   -0.66260E-04 11176   0.282E-01    0.329E-02
DAV:   3    -0.384291344851E+02    0.11830E-04   -0.61535E-05 13172   0.857E-02    0.161E-02
DAV:   4    -0.384291297251E+02    0.47600E-05   -0.11267E-05 12068   0.483E-02    0.448E-03
DAV:   5    -0.384291297043E+02    0.20815E-07   -0.49488E-06 10664   0.243E-02    0.180E-03
DAV:   6    -0.384291297237E+02   -0.19393E-07   -0.75428E-07 12276   0.101E-02    0.111E-03
DAV:   7    -0.384291297307E+02   -0.69854E-08   -0.11055E-07 11360   0.610E-03    0.589E-04
DAV:   8    -0.384291297379E+02   -0.72664E-08   -0.47717E-08 10036   0.205E-03
 293 F= -.38429130E+02 E0= -.38429065E+02  d E =-.150771E-03
 curvature:  -0.73 expect dE=-0.105E-03 dE for cont linesearch -0.280E-04
 ZBRENT: increasing intervall
 opt :   0.5070  next Energy=   -38.429176 (dE=-0.197E-03)
 bond charge predicted
       N       E                     dE             d eps       ncg     rms          rms(c)
DAV:   1    -0.384292852431E+02   -0.15551E-03   -0.57923E-02  9980   0.145E+00    0.121E-01
DAV:   2    -0.384292420075E+02    0.43236E-04   -0.26508E-03 11192   0.564E-01    0.657E-02
DAV:   3    -0.384291958766E+02    0.46131E-04   -0.24563E-04 13156   0.171E-01    0.323E-02
DAV:   4    -0.384291772969E+02    0.18580E-04   -0.44962E-05 12020   0.968E-02    0.893E-03
DAV:   5    -0.384291774420E+02   -0.14515E-06   -0.19792E-05 10656   0.485E-02    0.359E-03
DAV:   6    -0.384291775331E+02   -0.91055E-07   -0.30258E-06 12280   0.202E-02    0.222E-03
DAV:   7    -0.384291775454E+02   -0.12254E-07   -0.44297E-07 12072   0.122E-02    0.117E-03
DAV:   8    -0.384291775660E+02   -0.20652E-07   -0.20184E-07 14028   0.407E-03    0.533E-04
DAV:   9    -0.384291775697E+02   -0.36994E-08   -0.29552E-08  9372   0.185E-03
 294 F= -.38429178E+02 E0= -.38429112E+02  d E =-.198602E-03
 curvature:  -1.21 expect dE=-0.399E-03 dE for cont linesearch -0.105E-05
 trial: gam= 0.78442 g(F)=  0.287E-03 g(S)=  0.430E-04 ort =-0.614E-04 (trialstep = 0.110E+00)
 search vector abs. value=  0.290E-02
 bond charge predicted
       N       E                     dE             d eps       ncg     rms          rms(c)
DAV:   1    -0.384292109850E+02   -0.33419E-04   -0.66678E-03 10052   0.458E-01    0.325E-02
DAV:   2    -0.384292118225E+02   -0.83747E-06   -0.20275E-04 11124   0.137E-01    0.186E-02
DAV:   3    -0.384292072038E+02    0.46187E-05   -0.18520E-05 13464   0.525E-02    0.904E-03
DAV:   4    -0.384292059882E+02    0.12156E-05   -0.39904E-06 12476   0.320E-02    0.281E-03
DAV:   5    -0.384292059531E+02    0.35030E-07   -0.15132E-06 10692   0.142E-02    0.116E-03
DAV:   6    -0.384292059513E+02    0.18645E-08   -0.30640E-07 12344   0.624E-03    0.666E-04
DAV:   7    -0.384292059542E+02   -0.29277E-08   -0.46434E-08  9548   0.356E-03
 295 F= -.38429206E+02 E0= -.38429142E+02  d E =-.283845E-04
 trial-energy change:   -0.000028  1 .order   -0.000022   -0.000031   -0.000014
 step:   0.1351(harm=  0.1978)  dis= 0.00048  next Energy=   -38.429208 (dE=-0.300E-04)
 bond charge predicted
       N       E                     dE             d eps       ncg     rms          rms(c)
DAV:   1    -0.384292089547E+02   -0.30034E-05   -0.33992E-04 10052   0.103E-01    0.734E-03
DAV:   2    -0.384292090267E+02   -0.71946E-07   -0.10341E-05 11116   0.306E-02    0.418E-03
DAV:   3    -0.384292087640E+02    0.26261E-06   -0.94763E-07 13544   0.117E-02    0.204E-03
DAV:   4    -0.384292086924E+02    0.71687E-07   -0.20273E-07 12448   0.705E-03    0.658E-04
DAV:   5    -0.384292086831E+02    0.92787E-08   -0.77512E-08 10648   0.308E-03
 296 F= -.38429209E+02 E0= -.38429144E+02  d E =-.311134E-04
 curvature:  -0.50 expect dE=-0.104E-03 dE for cont linesearch -0.139E-05
 ZBRENT: increasing intervall
 opt :   0.1849  next Energy=   -38.429211 (dE=-0.339E-04)
 bond charge predicted
       N       E                     dE             d eps       ncg     rms          rms(c)
DAV:   1    -0.384292125525E+02   -0.38602E-05   -0.13589E-03 10052   0.207E-01    0.147E-02
DAV:   2    -0.384292127778E+02   -0.22529E-06   -0.41403E-05 11100   0.617E-02    0.839E-03
DAV:   3    -0.384292117955E+02    0.98235E-06   -0.37538E-06 13416   0.234E-02    0.409E-03
DAV:   4    -0.384292115304E+02    0.26503E-06   -0.81723E-07 12452   0.143E-02    0.127E-03
DAV:   5    -0.384292115140E+02    0.16396E-07   -0.30793E-07 10696   0.638E-03    0.527E-04
DAV:   6    -0.384292115108E+02    0.32210E-08   -0.61781E-08 10780   0.286E-03
 297 F= -.38429212E+02 E0= -.38429148E+02  d E =-.339411E-04
 curvature:  -0.98 expect dE=-0.275E-03 dE for cont linesearch -0.132E-06
 trial: gam= 0.56588 g(F)=  0.259E-03 g(S)=  0.215E-04 ort = 0.197E-04 (trialstep = 0.125E+00)
 search vector abs. value=  0.123E-02
 bond charge predicted
       N       E                     dE             d eps       ncg     rms          rms(c)
DAV:   1    -0.384292422139E+02   -0.30700E-04   -0.36392E-03 10012   0.331E-01    0.180E-02
DAV:   2    -0.384292469410E+02   -0.47271E-05   -0.92092E-05 11412   0.840E-02    0.106E-02
DAV:   3    -0.384292457363E+02    0.12047E-05   -0.68536E-06 12976   0.303E-02    0.557E-03
DAV:   4    -0.384292453361E+02    0.40015E-06   -0.11723E-06 11144   0.170E-02    0.171E-03
DAV:   5    -0.384292453397E+02   -0.35297E-08   -0.45857E-07 11364   0.689E-03    0.673E-04
DAV:   6    -0.384292453432E+02   -0.35175E-08   -0.68917E-08 10644   0.357E-03
 298 F= -.38429245E+02 E0= -.38429181E+02  d E =-.338324E-04
 ZBRENT: can't locate minimum, use default step
 trial-energy change:   -0.000034  1 .order   -0.000034   -0.000036   -0.000031
 step:   0.5006(harm=  0.8261)  dis= 0.00126  next Energy=   -38.429306 (dE=-0.942E-04)
 bond charge predicted
       N       E                     dE             d eps       ncg     rms          rms(c)
DAV:   1    -0.384292856752E+02   -0.40336E-04   -0.32757E-02 10012   0.994E-01    0.539E-02
DAV:   2    -0.384293280418E+02   -0.42367E-04   -0.82980E-04 11428   0.252E-01    0.319E-02
DAV:   3    -0.384293176707E+02    0.10371E-04   -0.61875E-05 13088   0.901E-02    0.167E-02
DAV:   4    -0.384293141429E+02    0.35278E-05   -0.10340E-05 11032   0.509E-02    0.514E-03
DAV:   5    -0.384293141740E+02   -0.31134E-07   -0.41215E-06 11304   0.209E-02    0.201E-03
DAV:   6    -0.384293141937E+02   -0.19678E-07   -0.63498E-07 11832   0.108E-02    0.119E-03
DAV:   7    -0.384293142159E+02   -0.22208E-07   -0.14542E-07 13452   0.643E-03    0.533E-04
DAV:   8    -0.384293142190E+02   -0.31127E-08   -0.39631E-08  9096   0.255E-03
 299 F= -.38429314E+02 E0= -.38429250E+02  d E =-.102708E-03
 curvature:  -1.37 expect dE=-0.494E-03 dE for cont linesearch -0.154E-04
 ZBRENT: increasing intervall
 opt :   1.2515  next Energy=   -38.429305 (dE=-0.939E-04)
 bond charge predicted
       N       E                     dE             d eps       ncg     rms          rms(c)
DAV:   1    -0.384291916012E+02    0.12261E-03   -0.13100E-01 10012   0.199E+00    0.108E-01
DAV:   2    -0.384293609940E+02   -0.16939E-03   -0.33200E-03 11436   0.502E-01    0.637E-02
DAV:   3    -0.384293203217E+02    0.40672E-04   -0.24822E-04 13144   0.179E-01    0.335E-02
DAV:   4    -0.384293062476E+02    0.14074E-04   -0.40656E-05 11000   0.101E-01    0.103E-02
DAV:   5    -0.384293063428E+02   -0.95180E-07   -0.16442E-05 11264   0.419E-02    0.400E-03
DAV:   6    -0.384293064150E+02   -0.72174E-07   -0.25782E-06 11856   0.216E-02    0.237E-03
DAV:   7    -0.384293064631E+02   -0.48076E-07   -0.58281E-07 13436   0.130E-02    0.108E-03
DAV:   8    -0.384293064706E+02   -0.75515E-08   -0.18230E-07 14152   0.517E-03    0.512E-04
DAV:   9    -0.384293064776E+02   -0.70386E-08   -0.39955E-08 10448   0.148E-03
 300 F= -.38429306E+02 E0= -.38429242E+02  d E =-.949668E-04
 curvature:   0.78 expect dE= 0.196E-02 dE for cont linesearch  0.128E-04
 ZBRENT: bracketing found
 ZBRENT: interpolating
 opt :   0.8404  next Energy=   -38.429334 (dE=-0.123E-03)
 writing wavefunctions
Thu Jan  6 03:01:28 CST 2022
