Wed Jan  5 23:52:40 CST 2022
 running on   48 total cores
 distrk:  each k-point on   48 cores,    1 groups
 distr:  one band on   24 cores,    2 groups
 using from now: INCAR     
 vasp.5.3.5 31Mar14 (build Jan 11 2016 19:50:55) complex                        
  
 POSCAR found type information on POSCAR  Zn Ga N  O 
 POSCAR found :  4 types and       8 ions
 scaLAPACK will be used

 ----------------------------------------------------------------------------- 
|                                                                             |
|           W    W    AA    RRRRR   N    N  II  N    N   GGGG   !!!           |
|           W    W   A  A   R    R  NN   N  II  NN   N  G    G  !!!           |
|           W    W  A    A  R    R  N N  N  II  N N  N  G       !!!           |
|           W WW W  AAAAAA  RRRRR   N  N N  II  N  N N  G  GGG   !            |
|           WW  WW  A    A  R   R   N   NN  II  N   NN  G    G                |
|           W    W  A    A  R    R  N    N  II  N    N   GGGG   !!!           |
|                                                                             |
|      For optimal performance we recommend to set                            |
|        NCORE= 4 - approx SQRT( number of cores)                             |
|      NCORE specifies how many cores store one orbital (NPAR=cpu/NCORE).     |
|      This setting can  greatly improve the performance of VASP for DFT.     |
|      The default, NPAR=number of cores might be grossly inefficient         |
|      on modern multi-core architectures or massively parallel machines.     |
|      Do your own testing !!!!                                               |
|      Unfortunately you need to use the default for GW and RPA calculations. |
|      (for HF NCORE is supported but not extensively tested yet)             |
|                                                                             |
 ----------------------------------------------------------------------------- 

 LDA part: xc-table for Pade appr. of Perdew
 POSCAR, INCAR and KPOINTS ok, starting setup
 WARNING: small aliasing (wrap around) errors must be expected
 FFT: planning ...
 WAVECAR not read
 entering main loop
       N       E                     dE             d eps       ncg     rms          rms(c)
DAV:   1     0.894965146268E+03    0.89497E+03   -0.41376E+04 10224   0.328E+03
DAV:   2     0.139711607162E+03   -0.75525E+03   -0.72458E+03  9928   0.771E+02
DAV:   3    -0.333870887176E+02   -0.17310E+03   -0.16846E+03 11240   0.265E+02
DAV:   4    -0.484723815352E+02   -0.15085E+02   -0.14932E+02 12672   0.799E+01
DAV:   5    -0.489160924983E+02   -0.44371E+00   -0.44190E+00 12524   0.134E+01    0.174E+01
DAV:   6    -0.402941519498E+02    0.86219E+01   -0.25281E+01 18936   0.835E+01    0.782E+00
DAV:   7    -0.410223307224E+02   -0.72818E+00   -0.93613E+00 10648   0.209E+01    0.548E+00
DAV:   8    -0.409255293986E+02    0.96801E-01   -0.12172E+00 15948   0.929E+00    0.246E+00
DAV:   9    -0.408935031600E+02    0.32026E-01   -0.22577E-01 13288   0.467E+00    0.113E+00
DAV:  10    -0.408814607871E+02    0.12042E-01   -0.85751E-02 13784   0.191E+00    0.409E-01
DAV:  11    -0.408836087700E+02   -0.21480E-02   -0.15097E-02 11876   0.132E+00    0.161E-01
DAV:  12    -0.408837695187E+02   -0.16075E-03   -0.27687E-03 11932   0.882E-01    0.989E-02
DAV:  13    -0.408838199693E+02   -0.50451E-04   -0.64541E-04 14132   0.202E-01    0.843E-02
DAV:  14    -0.408838235310E+02   -0.35617E-05   -0.86050E-05 11168   0.107E-01    0.548E-02
DAV:  15    -0.408838747589E+02   -0.51228E-04   -0.16009E-04 12372   0.111E-01    0.248E-02
DAV:  16    -0.408838797930E+02   -0.50342E-05   -0.52793E-05 12748   0.102E-01    0.220E-02
DAV:  17    -0.408838794964E+02    0.29663E-06   -0.94694E-06 14048   0.495E-02    0.481E-03
DAV:  18    -0.408838792643E+02    0.23208E-06   -0.37478E-06 12084   0.227E-02    0.274E-03
DAV:  19    -0.408838793651E+02   -0.10074E-06   -0.58075E-07 11852   0.103E-02    0.922E-04
DAV:  20    -0.408838792564E+02    0.10865E-06   -0.17838E-07 11064   0.835E-03    0.711E-04
DAV:  21    -0.408838793020E+02   -0.45544E-07   -0.69661E-08 12796   0.312E-03    0.479E-04
DAV:  22    -0.408838793047E+02   -0.27194E-08   -0.75668E-09  6224   0.937E-04
   1 F= -.40883879E+02 E0= -.40883761E+02  d E =-.408839E+02
 curvature:   0.00 expect dE= 0.000E+00 dE for cont linesearch  0.000E+00
 trial: gam= 0.00000 g(F)=  0.835E-05 g(S)=  0.256E-04 ort = 0.000E+00 (trialstep = 0.100E+01)
 search vector abs. value=  0.340E-04
 bond charge predicted
       N       E                     dE             d eps       ncg     rms          rms(c)
DAV:   1    -0.408841448723E+02   -0.26557E-03   -0.59110E-03 13320   0.108E+00    0.119E-01
DAV:   2    -0.408839297267E+02    0.21515E-03   -0.12090E-03 12736   0.570E-01    0.471E-02
DAV:   3    -0.408839005203E+02    0.29206E-04   -0.10212E-04 15544   0.132E-01    0.214E-02
DAV:   4    -0.408838915050E+02    0.90153E-05   -0.16654E-05 16468   0.463E-02    0.477E-03
DAV:   5    -0.408838917616E+02   -0.25667E-06   -0.71320E-06 10708   0.226E-02    0.358E-03
DAV:   6    -0.408838916719E+02    0.89691E-07   -0.26271E-07 13976   0.684E-03    0.231E-03
DAV:   7    -0.408838915374E+02    0.13459E-06   -0.62046E-08 11348   0.680E-03    0.530E-04
DAV:   8    -0.408838915262E+02    0.11174E-07   -0.57594E-08  9796   0.402E-03    0.198E-04
DAV:   9    -0.408838915250E+02    0.11291E-08   -0.10573E-08  6104   0.113E-03
   2 F= -.40883892E+02 E0= -.40883775E+02  d E =-.122204E-04
 trial-energy change:   -0.000012  1 .order   -0.000013   -0.000034    0.000008
 step:   0.7876(harm=  0.7999)  dis= 0.00019  next Energy=   -40.883892 (dE=-0.131E-04)
 bond charge predicted
       N       E                     dE             d eps       ncg     rms          rms(c)
DAV:   1    -0.408839042650E+02   -0.12739E-04   -0.26713E-04 13324   0.229E-01    0.253E-02
DAV:   2    -0.408838945523E+02    0.97126E-05   -0.54507E-05 12740   0.121E-01    0.100E-02
DAV:   3    -0.408838929784E+02    0.15739E-05   -0.46024E-06 15528   0.281E-02    0.455E-03
DAV:   4    -0.408838923947E+02    0.58369E-06   -0.75166E-07 16412   0.986E-03    0.102E-03
DAV:   5    -0.408838923640E+02    0.30741E-07   -0.32106E-07 10688   0.482E-03    0.763E-04
DAV:   6    -0.408838923734E+02   -0.93719E-08   -0.89080E-09  6172   0.143E-03
   3 F= -.40883892E+02 E0= -.40883775E+02  d E =-.130687E-04
 curvature:  -0.40 expect dE=-0.234E-05 dE for cont linesearch -0.103E-07
 trial: gam= 0.14511 g(F)=  0.420E-05 g(S)=  0.167E-05 ort = 0.939E-06 (trialstep = 0.958E+00)
 search vector abs. value=  0.686E-05
 bond charge predicted
       N       E                     dE             d eps       ncg     rms          rms(c)
DAV:   1    -0.408838961153E+02   -0.37513E-05   -0.12606E-03  9980   0.205E-01    0.143E-02
DAV:   2    -0.408838979699E+02   -0.18546E-05   -0.47566E-05 12152   0.594E-02    0.841E-03
DAV:   3    -0.408838968406E+02    0.11294E-05   -0.30782E-06 13032   0.180E-02    0.342E-03
DAV:   4    -0.408838966147E+02    0.22583E-06   -0.71525E-07 12232   0.123E-02    0.735E-04
DAV:   5    -0.408838966170E+02   -0.23038E-08   -0.21941E-07 11488   0.593E-03    0.467E-04
DAV:   6    -0.408838966206E+02   -0.35539E-08   -0.30946E-08  8068   0.255E-03
   4 F= -.40883897E+02 E0= -.40883779E+02  d E =-.424721E-05
 trial-energy change:   -0.000004  1 .order   -0.000004   -0.000006   -0.000003
 step:   2.2861(harm=  1.9042)  dis= 0.00059  next Energy=   -40.883898 (dE=-0.608E-05)
 bond charge predicted
       N       E                     dE             d eps       ncg     rms          rms(c)
DAV:   1    -0.408838967721E+02   -0.15503E-06   -0.24285E-03  9944   0.285E-01    0.198E-02
DAV:   2    -0.408839003283E+02   -0.35563E-05   -0.91677E-05 12168   0.834E-02    0.117E-02
DAV:   3    -0.408838982160E+02    0.21123E-05   -0.59456E-06 12788   0.286E-02    0.480E-03
DAV:   4    -0.408838977995E+02    0.41652E-06   -0.15115E-06 12196   0.205E-02    0.100E-03
DAV:   5    -0.408838978180E+02   -0.18466E-07   -0.48001E-07 11332   0.913E-03    0.643E-04
DAV:   6    -0.408838978248E+02   -0.68335E-08   -0.79316E-08  9448   0.405E-03
   5 F= -.40883898E+02 E0= -.40883780E+02  d E =-.545145E-05
 curvature:  -0.91 expect dE=-0.347E-05 dE for cont linesearch -0.171E-06
 ZBRENT: interpolating
 opt :   1.9198  next Energy=   -40.883898 (dE=-0.566E-05)
 bond charge predicted
       N       E                     dE             d eps       ncg     rms          rms(c)
DAV:   1    -0.408838978694E+02   -0.51464E-07   -0.18382E-04  9956   0.784E-02    0.540E-03
DAV:   2    -0.408838981363E+02   -0.26684E-06   -0.68576E-06 12168   0.223E-02    0.320E-03
DAV:   3    -0.408838980410E+02    0.95263E-07   -0.43381E-07 13344   0.652E-03    0.129E-03
DAV:   4    -0.408838980324E+02    0.86566E-08   -0.95800E-08 11796   0.413E-03
   6 F= -.40883898E+02 E0= -.40883780E+02  d E =-.565899E-05
 curvature:  -1.11 expect dE=-0.260E-05 dE for cont linesearch -0.107E-08
 trial: gam= 0.39362 g(F)=  0.178E-05 g(S)=  0.574E-06 ort = 0.814E-07 (trialstep = 0.115E+01)
 search vector abs. value=  0.348E-05
 bond charge predicted
       N       E                     dE             d eps       ncg     rms          rms(c)
DAV:   1    -0.408839007510E+02   -0.27099E-05   -0.88998E-04  9920   0.165E-01    0.133E-02
DAV:   2    -0.408839010199E+02   -0.26893E-06   -0.30166E-05 12504   0.540E-02    0.792E-03
DAV:   3    -0.408839001409E+02    0.87903E-06   -0.25167E-06 11812   0.206E-02    0.345E-03
DAV:   4    -0.408838999517E+02    0.18912E-06   -0.75170E-07 12208   0.112E-02    0.601E-04
DAV:   5    -0.408838999668E+02   -0.15038E-07   -0.20521E-07 10892   0.503E-03    0.396E-04
DAV:   6    -0.408838999631E+02    0.36880E-08   -0.22122E-08  7772   0.337E-03
   7 F= -.40883900E+02 E0= -.40883782E+02  d E =-.193073E-05
 trial-energy change:   -0.000002  1 .order   -0.000002   -0.000003   -0.000001
 step:   1.5572(harm=  1.7322)  dis= 0.00019  next Energy=   -40.883900 (dE=-0.210E-05)
 bond charge predicted
       N       E                     dE             d eps       ncg     rms          rms(c)
DAV:   1    -0.408839002971E+02   -0.33035E-06   -0.11187E-04  9932   0.584E-02    0.473E-03
DAV:   2    -0.408839003311E+02   -0.33943E-07   -0.38067E-06 12520   0.192E-02    0.282E-03
DAV:   3    -0.408839002298E+02    0.10129E-06   -0.31505E-07 11800   0.805E-03    0.122E-03
DAV:   4    -0.408839002044E+02    0.25417E-07   -0.98099E-08 11652   0.431E-03    0.219E-04
DAV:   5    -0.408839002062E+02   -0.18717E-08   -0.24275E-08  6924   0.196E-03
   8 F= -.40883900E+02 E0= -.40883782E+02  d E =-.217388E-05
 curvature:  -1.15 expect dE=-0.200E-05 dE for cont linesearch -0.245E-07
 trial: gam= 0.65422 g(F)=  0.136E-05 g(S)=  0.378E-06 ort = 0.273E-06 (trialstep = 0.120E+01)
 search vector abs. value=  0.358E-05
 bond charge predicted
       N       E                     dE             d eps       ncg     rms          rms(c)
DAV:   1    -0.408839017692E+02   -0.15649E-05   -0.10616E-03  9896   0.177E-01    0.112E-02
DAV:   2    -0.408839025541E+02   -0.78488E-06   -0.24903E-05 11336   0.427E-02    0.682E-03
DAV:   3    -0.408839019771E+02    0.57702E-06   -0.14990E-06 14404   0.112E-02    0.239E-03
DAV:   4    -0.408839019283E+02    0.48776E-07   -0.32640E-07 11508   0.653E-03    0.464E-04
DAV:   5    -0.408839019417E+02   -0.13414E-07   -0.10823E-07 11072   0.357E-03    0.355E-04
DAV:   6    -0.408839019399E+02    0.18149E-08   -0.77171E-09  6188   0.166E-03
   9 F= -.40883902E+02 E0= -.40883784E+02  d E =-.173368E-05
 trial-energy change:   -0.000002  1 .order   -0.000002   -0.000002   -0.000001
 step:   1.5846(harm=  1.9210)  dis= 0.00022  next Energy=   -40.883902 (dE=-0.188E-05)
 bond charge predicted
       N       E                     dE             d eps       ncg     rms          rms(c)
DAV:   1    -0.408839021608E+02   -0.21902E-06   -0.11177E-04  9912   0.574E-02    0.366E-03
DAV:   2    -0.408839022396E+02   -0.78872E-07   -0.26132E-06 11360   0.138E-02    0.222E-03
DAV:   3    -0.408839021984E+02    0.41215E-07   -0.15789E-07 14316   0.368E-03    0.777E-04
DAV:   4    -0.408839022013E+02   -0.29186E-08   -0.35624E-08 10096   0.222E-03
  10 F= -.40883902E+02 E0= -.40883785E+02  d E =-.199510E-05
 curvature:  -1.41 expect dE=-0.127E-05 dE for cont linesearch -0.586E-07
 trial: gam= 0.46665 g(F)=  0.751E-06 g(S)=  0.152E-06 ort = 0.386E-06 (trialstep = 0.127E+01)
 search vector abs. value=  0.204E-05
 bond charge predicted
       N       E                     dE             d eps       ncg     rms          rms(c)
DAV:   1    -0.408839033071E+02   -0.11086E-05   -0.66649E-04  9888   0.146E-01    0.101E-02
DAV:   2    -0.408839038083E+02   -0.50124E-06   -0.20822E-05 11408   0.441E-02    0.573E-03
DAV:   3    -0.408839033657E+02    0.44260E-06   -0.15689E-06 13520   0.142E-02    0.271E-03
DAV:   4    -0.408839032117E+02    0.15399E-06   -0.34534E-07 12260   0.817E-03    0.446E-04
DAV:   5    -0.408839032195E+02   -0.78007E-08   -0.12512E-07 10664   0.333E-03    0.279E-04
DAV:   6    -0.408839032253E+02   -0.58017E-08   -0.59346E-09  6132   0.132E-03
  11 F= -.40883903E+02 E0= -.40883786E+02  d E =-.102398E-05
 trial-energy change:   -0.000001  1 .order   -0.000001   -0.000001   -0.000001
 step:   2.4553(harm=  2.4553)  dis= 0.00027  next Energy=   -40.883904 (dE=-0.133E-05)
 bond charge predicted
       N       E                     dE             d eps       ncg     rms          rms(c)
DAV:   1    -0.408839036424E+02   -0.42292E-06   -0.57306E-04  9880   0.136E-01    0.935E-03
DAV:   2    -0.408839040721E+02   -0.42964E-06   -0.17905E-05 11424   0.410E-02    0.532E-03
DAV:   3    -0.408839036827E+02    0.38938E-06   -0.13528E-06 13448   0.133E-02    0.252E-03
DAV:   4    -0.408839035486E+02    0.13407E-06   -0.30722E-07 12236   0.800E-03    0.413E-04
DAV:   5    -0.408839035546E+02   -0.60013E-08   -0.10333E-07 10696   0.339E-03    0.259E-04
DAV:   6    -0.408839035593E+02   -0.47094E-08   -0.83837E-09  6152   0.176E-03
  12 F= -.40883904E+02 E0= -.40883786E+02  d E =-.135800E-05
 curvature:  -2.32 expect dE=-0.200E-05 dE for cont linesearch -0.424E-09
 trial: gam= 1.19868 g(F)=  0.695E-06 g(S)=  0.169E-06 ort = 0.193E-07 (trialstep = 0.802E+00)
 search vector abs. value=  0.385E-05
 bond charge predicted
       N       E                     dE             d eps       ncg     rms          rms(c)
DAV:   1    -0.408839038236E+02   -0.26899E-06   -0.49820E-04  9876   0.122E-01    0.758E-03
DAV:   2    -0.408839043458E+02   -0.52219E-06   -0.12822E-05 11352   0.280E-02    0.453E-03
DAV:   3    -0.408839040263E+02    0.31952E-06   -0.63026E-07 13432   0.889E-03    0.163E-03
DAV:   4    -0.408839039916E+02    0.34703E-07   -0.19264E-07 11032   0.642E-03    0.327E-04
DAV:   5    -0.408839039943E+02   -0.27358E-08   -0.54168E-08 10516   0.384E-03
  13 F= -.40883904E+02 E0= -.40883786E+02  d E =-.434989E-06
 trial-energy change:   -0.000000  1 .order   -0.000000   -0.000001   -0.000000
 step:   0.8397(harm=  0.8593)  dis= 0.00013  next Energy=   -40.883904 (dE=-0.436E-06)
 bond charge predicted
       N       E                     dE             d eps       ncg     rms          rms(c)
DAV:   1    -0.408839039993E+02   -0.76661E-08   -0.10984E-06 10380   0.609E-03    0.406E-04
DAV:   2    -0.408839040005E+02   -0.12597E-08   -0.32589E-08  9460   0.208E-03
  14 F= -.40883904E+02 E0= -.40883786E+02  d E =-.441180E-06
 curvature:  -1.64 expect dE=-0.529E-06 dE for cont linesearch -0.284E-08
 trial: gam= 0.27204 g(F)=  0.224E-06 g(S)=  0.982E-07 ort = 0.815E-07 (trialstep = 0.810E+00)
 search vector abs. value=  0.651E-06
 bond charge predicted
       N       E                     dE             d eps       ncg     rms          rms(c)
DAV:   1    -0.408839044988E+02   -0.49957E-06   -0.70866E-05  9916   0.478E-02    0.470E-03
DAV:   2    -0.408839043439E+02    0.15495E-06   -0.20351E-06 12088   0.157E-02    0.284E-03
DAV:   3    -0.408839042203E+02    0.12354E-06   -0.23576E-07 12624   0.822E-03    0.837E-04
DAV:   4    -0.408839042135E+02    0.68048E-08   -0.95552E-08 10828   0.444E-03
  15 F= -.40883904E+02 E0= -.40883787E+02  d E =-.213014E-06
 trial-energy change:   -0.000000  1 .order   -0.000000   -0.000000   -0.000000
 step:   1.3218(harm=  1.3218)  dis= 0.00007  next Energy=   -40.883904 (dE=-0.228E-06)
 bond charge predicted
       N       E                     dE             d eps       ncg     rms          rms(c)
DAV:   1    -0.408839043750E+02   -0.15468E-06   -0.28284E-05  9928   0.302E-02    0.292E-03
DAV:   2    -0.408839043194E+02    0.55670E-07   -0.81617E-07 12020   0.101E-02    0.176E-03
DAV:   3    -0.408839042779E+02    0.41410E-07   -0.93940E-08 12076   0.563E-03    0.522E-04
DAV:   4    -0.408839042742E+02    0.37594E-08   -0.35662E-08  9644   0.322E-03
  16 F= -.40883904E+02 E0= -.40883787E+02  d E =-.273662E-06
 curvature:  -1.25 expect dE=-0.123E-06 dE for cont linesearch -0.173E-08
 trial: gam= 0.23265 g(F)=  0.855E-07 g(S)=  0.127E-07 ort = 0.300E-07 (trialstep = 0.912E+00)
 search vector abs. value=  0.147E-06
 bond charge predicted
       N       E                     dE             d eps       ncg     rms          rms(c)
DAV:   1    -0.408839043314E+02   -0.53466E-07   -0.25085E-05 10188   0.320E-02    0.246E-03
DAV:   2    -0.408839043137E+02    0.17732E-07   -0.12392E-06 11244   0.131E-02    0.118E-03
DAV:   3    -0.408839043272E+02   -0.13518E-07   -0.96489E-08 13908   0.404E-03    0.576E-04
DAV:   4    -0.408839043315E+02   -0.43451E-08   -0.11261E-08  6236   0.186E-03
  17 F= -.40883904E+02 E0= -.40883787E+02  d E =-.573568E-07
 trial-energy change:   -0.000000  1 .order   -0.000000   -0.000000   -0.000000
 step:   0.9639(harm=  0.9639)  dis= 0.00002  next Energy=   -40.883904 (dE=-0.507E-07)
 bond charge predicted
       N       E                     dE             d eps       ncg     rms          rms(c)
DAV:   1    -0.408839043371E+02   -0.99049E-08   -0.92341E-08 10644   0.223E-03    0.168E-04
DAV:   2    -0.408839043351E+02    0.20023E-08   -0.41870E-09  5736   0.954E-04
  18 F= -.40883904E+02 E0= -.40883787E+02  d E =-.609143E-07
 curvature:  -0.68 expect dE=-0.349E-07 dE for cont linesearch -0.676E-09
 trial: gam= 0.48413 g(F)=  0.326E-07 g(S)=  0.190E-07 ort = 0.121E-07 (trialstep = 0.923E+00)
 search vector abs. value=  0.980E-07
 reached required accuracy - stopping structural energy minimisation
 writing wavefunctions
Wed Jan  5 23:56:36 CST 2022
