Thu Jan  6 01:36:57 CST 2022
 running on   48 total cores
 distrk:  each k-point on   48 cores,    1 groups
 distr:  one band on   24 cores,    2 groups
 using from now: INCAR     
 vasp.5.3.5 31Mar14 (build Jan 11 2016 19:50:55) complex                        
  
 POSCAR found type information on POSCAR  Zn Ga N  O 
 POSCAR found :  4 types and       8 ions
 scaLAPACK will be used

 ----------------------------------------------------------------------------- 
|                                                                             |
|           W    W    AA    RRRRR   N    N  II  N    N   GGGG   !!!           |
|           W    W   A  A   R    R  NN   N  II  NN   N  G    G  !!!           |
|           W    W  A    A  R    R  N N  N  II  N N  N  G       !!!           |
|           W WW W  AAAAAA  RRRRR   N  N N  II  N  N N  G  GGG   !            |
|           WW  WW  A    A  R   R   N   NN  II  N   NN  G    G                |
|           W    W  A    A  R    R  N    N  II  N    N   GGGG   !!!           |
|                                                                             |
|      For optimal performance we recommend to set                            |
|        NCORE= 4 - approx SQRT( number of cores)                             |
|      NCORE specifies how many cores store one orbital (NPAR=cpu/NCORE).     |
|      This setting can  greatly improve the performance of VASP for DFT.     |
|      The default, NPAR=number of cores might be grossly inefficient         |
|      on modern multi-core architectures or massively parallel machines.     |
|      Do your own testing !!!!                                               |
|      Unfortunately you need to use the default for GW and RPA calculations. |
|      (for HF NCORE is supported but not extensively tested yet)             |
|                                                                             |
 ----------------------------------------------------------------------------- 

 LDA part: xc-table for Pade appr. of Perdew
 POSCAR, INCAR and KPOINTS ok, starting setup
 WARNING: small aliasing (wrap around) errors must be expected
 FFT: planning ...
 WAVECAR not read
 entering main loop
       N       E                     dE             d eps       ncg     rms          rms(c)
DAV:   1     0.903914280298E+03    0.90391E+03   -0.42303E+04 10184   0.337E+03
DAV:   2     0.144624004251E+03   -0.75929E+03   -0.73024E+03  9888   0.789E+02
DAV:   3    -0.286584894857E+02   -0.17328E+03   -0.16779E+03 11224   0.268E+02
DAV:   4    -0.439593587969E+02   -0.15301E+02   -0.15121E+02 12132   0.803E+01
DAV:   5    -0.444459745500E+02   -0.48662E+00   -0.48452E+00 12316   0.145E+01    0.162E+01
DAV:   6    -0.380315768478E+02    0.64144E+01   -0.19217E+01 18828   0.743E+01    0.826E+00
DAV:   7    -0.384598682662E+02   -0.42829E+00   -0.70313E+00 10672   0.182E+01    0.511E+00
DAV:   8    -0.383901380400E+02    0.69730E-01   -0.10694E+00 15912   0.946E+00    0.226E+00
DAV:   9    -0.383470525609E+02    0.43085E-01   -0.26358E-01 14844   0.583E+00    0.592E-01
DAV:  10    -0.383502600728E+02   -0.32075E-02   -0.54655E-02 10864   0.195E+00    0.325E-01
DAV:  11    -0.383508014126E+02   -0.54134E-03   -0.86265E-03 15648   0.108E+00    0.183E-01
DAV:  12    -0.383509362637E+02   -0.13485E-03   -0.19327E-03 11424   0.452E-01    0.945E-02
DAV:  13    -0.383508891077E+02    0.47156E-04   -0.64598E-04 15000   0.272E-01    0.313E-02
DAV:  14    -0.383509124823E+02   -0.23375E-04   -0.22069E-04 12704   0.139E-01    0.184E-02
DAV:  15    -0.383509131160E+02   -0.63372E-06   -0.51537E-05 13036   0.763E-02    0.104E-02
DAV:  16    -0.383509139648E+02   -0.84875E-06   -0.12147E-05 13192   0.292E-02    0.262E-03
DAV:  17    -0.383509145271E+02   -0.56233E-06   -0.24257E-06 11288   0.164E-02    0.163E-03
DAV:  18    -0.383509146909E+02   -0.16380E-06   -0.41187E-07 11676   0.762E-03    0.121E-03
DAV:  19    -0.383509146765E+02    0.14448E-07   -0.11808E-07 12988   0.351E-03    0.483E-04
DAV:  20    -0.383509146570E+02    0.19461E-07   -0.16752E-08  7244   0.148E-03    0.165E-04
DAV:  21    -0.383509146532E+02    0.37935E-08   -0.65874E-09  6196   0.783E-04
   1 F= -.38350915E+02 E0= -.38349507E+02  d E =-.383509E+02
 curvature:   0.00 expect dE= 0.000E+00 dE for cont linesearch  0.000E+00
 trial: gam= 0.00000 g(F)=  0.216E-03 g(S)=  0.460E-03 ort = 0.000E+00 (trialstep = 0.100E+01)
 search vector abs. value=  0.676E-03
 bond charge predicted
       N       E                     dE             d eps       ncg     rms          rms(c)
DAV:   1    -0.383524994751E+02   -0.15848E-02   -0.91967E-02 10248   0.226E+00    0.289E-01
DAV:   2    -0.383517854379E+02    0.71404E-03   -0.85779E-03 12136   0.129E+00    0.151E-01
DAV:   3    -0.383514166319E+02    0.36881E-03   -0.83086E-04 13044   0.359E-01    0.690E-02
DAV:   4    -0.383513209430E+02    0.95689E-04   -0.24681E-04 12188   0.194E-01    0.101E-02
DAV:   5    -0.383513282185E+02   -0.72754E-05   -0.85071E-05 10540   0.830E-02    0.726E-03
DAV:   6    -0.383513282534E+02   -0.34922E-07   -0.33192E-06 13376   0.260E-02    0.418E-03
DAV:   7    -0.383513283994E+02   -0.14604E-06   -0.87281E-07 13668   0.157E-02    0.127E-03
DAV:   8    -0.383513284599E+02   -0.60535E-07   -0.27434E-07 11280   0.530E-03    0.603E-04
DAV:   9    -0.383513284659E+02   -0.59563E-08   -0.47794E-08  9916   0.202E-03
   2 F= -.38351328E+02 E0= -.38349944E+02  d E =-.413813E-03
 trial-energy change:   -0.000414  1 .order   -0.000408   -0.000676   -0.000140
 step:   1.2420(harm=  1.2615)  dis= 0.00193  next Energy=   -38.351346 (dE=-0.431E-03)
 bond charge predicted
       N       E                     dE             d eps       ncg     rms          rms(c)
DAV:   1    -0.383514154178E+02   -0.86958E-04   -0.53756E-03 10228   0.546E-01    0.699E-02
DAV:   2    -0.383513741429E+02    0.41275E-04   -0.50121E-04 12136   0.313E-01    0.364E-02
DAV:   3    -0.383513523159E+02    0.21827E-04   -0.48704E-05 13020   0.867E-02    0.167E-02
DAV:   4    -0.383513466154E+02    0.57006E-05   -0.14402E-05 12200   0.470E-02    0.244E-03
DAV:   5    -0.383513470454E+02   -0.43008E-06   -0.49757E-06 10528   0.202E-02    0.176E-03
DAV:   6    -0.383513470787E+02   -0.33269E-07   -0.19761E-07 13328   0.643E-03    0.102E-03
DAV:   7    -0.383513471200E+02   -0.41263E-07   -0.47913E-08  9660   0.381E-03    0.305E-04
DAV:   8    -0.383513471318E+02   -0.11813E-07   -0.16446E-08  6264   0.138E-03    0.139E-04
DAV:   9    -0.383513471332E+02   -0.14620E-08   -0.50611E-09  5852   0.740E-04
   3 F= -.38351347E+02 E0= -.38349968E+02  d E =-.432480E-03
 curvature:  -0.63 expect dE=-0.138E-03 dE for cont linesearch -0.104E-06
 trial: gam= 0.31072 g(F)=  0.145E-03 g(S)=  0.757E-04 ort = 0.106E-04 (trialstep = 0.105E+01)
 search vector abs. value=  0.292E-03
 bond charge predicted
       N       E                     dE             d eps       ncg     rms          rms(c)
DAV:   1    -0.383518856799E+02   -0.53855E-03   -0.41453E-02  9872   0.125E+00    0.163E-01
DAV:   2    -0.383516563703E+02    0.22931E-03   -0.22374E-03 12120   0.554E-01    0.966E-02
DAV:   3    -0.383514665745E+02    0.18980E-03   -0.34040E-04 12988   0.281E-01    0.303E-02
DAV:   4    -0.383514596880E+02    0.68865E-05   -0.11286E-04 11020   0.148E-01    0.834E-03
DAV:   5    -0.383514613228E+02   -0.16348E-05   -0.25508E-05 12064   0.508E-02    0.538E-03
DAV:   6    -0.383514610774E+02    0.24547E-06   -0.17863E-06 12136   0.256E-02    0.291E-03
DAV:   7    -0.383514610270E+02    0.50333E-07   -0.81855E-07 14172   0.955E-03    0.107E-03
DAV:   8    -0.383514610121E+02    0.14917E-07   -0.17044E-07 12936   0.516E-03    0.589E-04
DAV:   9    -0.383514610063E+02    0.57721E-08   -0.40307E-08 10524   0.239E-03
   4 F= -.38351461E+02 E0= -.38350076E+02  d E =-.113873E-03
 trial-energy change:   -0.000114  1 .order   -0.000113   -0.000235    0.000008
 step:   1.0141(harm=  1.0137)  dis= 0.00140  next Energy=   -38.351461 (dE=-0.114E-03)
 bond charge predicted
       N       E                     dE             d eps       ncg     rms          rms(c)
DAV:   1    -0.383514615879E+02   -0.57576E-06   -0.44353E-05  9932   0.411E-02    0.535E-03
DAV:   2    -0.383514613429E+02    0.24498E-06   -0.24540E-06 12124   0.186E-02    0.318E-03
DAV:   3    -0.383514611030E+02    0.23991E-06   -0.36933E-07 13012   0.925E-03    0.101E-03
DAV:   4    -0.383514610944E+02    0.86056E-08   -0.12207E-07 10956   0.484E-03    0.276E-04
DAV:   5    -0.383514611018E+02   -0.73937E-08   -0.27193E-08  8220   0.170E-03
   5 F= -.38351461E+02 E0= -.38350077E+02  d E =-.113969E-03
 curvature:  -0.66 expect dE=-0.291E-04 dE for cont linesearch -0.245E-08
 trial: gam= 0.21337 g(F)=  0.382E-04 g(S)=  0.586E-05 ort = 0.104E-05 (trialstep = 0.104E+01)
 search vector abs. value=  0.578E-04
 bond charge predicted
       N       E                     dE             d eps       ncg     rms          rms(c)
DAV:   1    -0.383514912913E+02   -0.30197E-04   -0.11751E-02 10040   0.651E-01    0.481E-02
DAV:   2    -0.383514964420E+02   -0.51506E-05   -0.44008E-04 11888   0.237E-01    0.267E-02
DAV:   3    -0.383514901603E+02    0.62817E-05   -0.38257E-05 12908   0.703E-02    0.133E-02
DAV:   4    -0.383514872183E+02    0.29420E-05   -0.78898E-06 13560   0.343E-02    0.237E-03
DAV:   5    -0.383514873581E+02   -0.13980E-06   -0.22353E-06 10748   0.137E-02    0.140E-03
DAV:   6    -0.383514874050E+02   -0.46869E-07   -0.12343E-07 13004   0.439E-03    0.742E-04
DAV:   7    -0.383514874388E+02   -0.33761E-07   -0.19807E-08  7116   0.233E-03    0.239E-04
DAV:   8    -0.383514874472E+02   -0.83974E-08   -0.80207E-09  6076   0.136E-03
   6 F= -.38351487E+02 E0= -.38350104E+02  d E =-.263454E-04
 trial-energy change:   -0.000026  1 .order   -0.000028   -0.000046   -0.000009
 step:   1.3975(harm=  1.2993)  dis= 0.00106  next Energy=   -38.351489 (dE=-0.279E-04)
 bond charge predicted
       N       E                     dE             d eps       ncg     rms          rms(c)
DAV:   1    -0.383514889921E+02   -0.15534E-05   -0.13724E-03 10044   0.222E-01    0.164E-02
DAV:   2    -0.383514896291E+02   -0.63699E-06   -0.51263E-05 11872   0.806E-02    0.911E-03
DAV:   3    -0.383514888079E+02    0.82127E-06   -0.44559E-06 12936   0.240E-02    0.454E-03
DAV:   4    -0.383514884246E+02    0.38323E-06   -0.92284E-07 13584   0.117E-02    0.811E-04
DAV:   5    -0.383514884381E+02   -0.13501E-07   -0.26158E-07 10744   0.471E-03    0.481E-04
DAV:   6    -0.383514884534E+02   -0.15237E-07   -0.11891E-08  6364   0.151E-03    0.257E-04
DAV:   7    -0.383514884661E+02   -0.12717E-07   -0.42821E-09  5972   0.101E-03    0.861E-05
DAV:   8    -0.383514884684E+02   -0.22933E-08   -0.19397E-09  5656   0.623E-04
   7 F= -.38351488E+02 E0= -.38350105E+02  d E =-.273666E-04
 curvature:  -0.73 expect dE=-0.121E-04 dE for cont linesearch -0.139E-06
 trial: gam= 0.45579 g(F)=  0.156E-04 g(S)=  0.111E-05 ort =-0.333E-05 (trialstep = 0.111E+01)
 search vector abs. value=  0.257E-04
 bond charge predicted
       N       E                     dE             d eps       ncg     rms          rms(c)
DAV:   1    -0.383514987159E+02   -0.10250E-04   -0.65283E-03  9956   0.448E-01    0.266E-02
DAV:   2    -0.383515047414E+02   -0.60256E-05   -0.15875E-04 11736   0.102E-01    0.157E-02
DAV:   3    -0.383515008103E+02    0.39312E-05   -0.84588E-06 13388   0.276E-02    0.647E-03
DAV:   4    -0.383515003532E+02    0.45705E-06   -0.24653E-06 11540   0.183E-02    0.131E-03
DAV:   5    -0.383515004208E+02   -0.67610E-07   -0.82682E-07 11088   0.107E-02    0.973E-04
DAV:   6    -0.383515004231E+02   -0.22542E-08   -0.75356E-08 10644   0.411E-03
   8 F= -.38351500E+02 E0= -.38350116E+02  d E =-.119547E-04
 trial-energy change:   -0.000012  1 .order   -0.000011   -0.000017   -0.000006
 step:   1.5009(harm=  1.6769)  dis= 0.00070  next Energy=   -38.351501 (dE=-0.130E-04)
 bond charge predicted
       N       E                     dE             d eps       ncg     rms          rms(c)
DAV:   1    -0.383515017132E+02   -0.12924E-05   -0.79561E-04  9968   0.157E-01    0.938E-03
DAV:   2    -0.383515024940E+02   -0.78081E-06   -0.19529E-05 11752   0.361E-02    0.547E-03
DAV:   3    -0.383515020441E+02    0.44990E-06   -0.10619E-06 13368   0.108E-02    0.232E-03
DAV:   4    -0.383515020078E+02    0.36296E-07   -0.31605E-07 11820   0.769E-03    0.472E-04
DAV:   5    -0.383515020182E+02   -0.10367E-07   -0.10785E-07 10840   0.401E-03    0.341E-04
DAV:   6    -0.383515020199E+02   -0.17494E-08   -0.95815E-09  6128   0.138E-03
   9 F= -.38351502E+02 E0= -.38350118E+02  d E =-.135516E-04
 curvature:  -1.28 expect dE=-0.842E-05 dE for cont linesearch -0.158E-06
 ZBRENT: increasing intervall
 opt :   2.2772  next Energy=   -38.351501 (dE=-0.123E-04)
 bond charge predicted
       N       E                     dE             d eps       ncg     rms          rms(c)
DAV:   1    -0.383515002761E+02    0.17421E-05   -0.31788E-03  9956   0.313E-01    0.186E-02
DAV:   2    -0.383515032437E+02   -0.29675E-05   -0.77405E-05 11752   0.713E-02    0.109E-02
DAV:   3    -0.383515013506E+02    0.18930E-05   -0.41344E-06 13376   0.198E-02    0.454E-03
DAV:   4    -0.383515011457E+02    0.20493E-06   -0.12130E-06 11596   0.134E-02    0.923E-04
DAV:   5    -0.383515011805E+02   -0.34792E-07   -0.40879E-07 11060   0.765E-03    0.680E-04
DAV:   6    -0.383515011827E+02   -0.22205E-08   -0.37241E-08  9316   0.283E-03
  10 F= -.38351501E+02 E0= -.38350117E+02  d E =-.127143E-04
 curvature:   9.81 expect dE= 0.131E-03 dE for cont linesearch  0.102E-04
 ZBRENT: bracketing found
 ZBRENT: interpolating
 opt :   1.6996  next Energy=   -38.351502 (dE=-0.137E-04)
 bond charge predicted
       N       E                     dE             d eps       ncg     rms          rms(c)
DAV:   1    -0.383515021126E+02   -0.93212E-06   -0.17567E-03  9956   0.232E-01    0.138E-02
DAV:   2    -0.383515036419E+02   -0.15293E-05   -0.42592E-05 11740   0.526E-02    0.813E-03
DAV:   3    -0.383515025046E+02    0.11373E-05   -0.22435E-06 13408   0.136E-02    0.332E-03
DAV:   4    -0.383515023160E+02    0.18853E-06   -0.64894E-07 11440   0.854E-03    0.673E-04
DAV:   5    -0.383515023293E+02   -0.13239E-07   -0.21569E-07 11060   0.533E-03    0.505E-04
DAV:   6    -0.383515023258E+02    0.34652E-08   -0.16033E-08  6504   0.216E-03
  11 F= -.38351502E+02 E0= -.38350118E+02  d E =-.138574E-04
 curvature:  -0.17 expect dE=-0.128E-05 dE for cont linesearch -0.111E-08
 trial: gam= 0.28817 g(F)=  0.657E-05 g(S)=  0.962E-06 ort = 0.410E-06 (trialstep = 0.123E+01)
 search vector abs. value=  0.990E-05
 bond charge predicted
       N       E                     dE             d eps       ncg     rms          rms(c)
DAV:   1    -0.383515035615E+02   -0.12322E-05   -0.28752E-03 10012   0.303E-01    0.146E-02
DAV:   2    -0.383515095887E+02   -0.60272E-05   -0.85914E-05 11304   0.734E-02    0.846E-03
DAV:   3    -0.383515088863E+02    0.70239E-06   -0.46630E-06 12440   0.236E-02    0.424E-03
DAV:   4    -0.383515085905E+02    0.29584E-06   -0.10390E-06 11672   0.129E-02    0.920E-04
DAV:   5    -0.383515086091E+02   -0.18561E-07   -0.32638E-07 11260   0.664E-03    0.547E-04
DAV:   6    -0.383515086071E+02    0.19731E-08   -0.43238E-08  9756   0.248E-03
  12 F= -.38351509E+02 E0= -.38350125E+02  d E =-.628127E-05
 trial-energy change:   -0.000006  1 .order   -0.000006   -0.000009   -0.000002
 step:   1.4056(harm=  1.5149)  dis= 0.00039  next Energy=   -38.351509 (dE=-0.641E-05)
 bond charge predicted
       N       E                     dE             d eps       ncg     rms          rms(c)
DAV:   1    -0.383515086967E+02   -0.87662E-07   -0.58802E-05 10036   0.434E-02    0.213E-03
DAV:   2    -0.383515088220E+02   -0.12524E-06   -0.18054E-06 11352   0.109E-02    0.123E-03
DAV:   3    -0.383515088117E+02    0.10276E-07   -0.10164E-07 12388   0.402E-03    0.630E-04
DAV:   4    -0.383515088010E+02    0.10672E-07   -0.19434E-08  6908   0.225E-03    0.162E-04
DAV:   5    -0.383515088004E+02    0.57435E-09   -0.92148E-09  5712   0.133E-03
  13 F= -.38351509E+02 E0= -.38350125E+02  d E =-.647462E-05
 curvature:  -0.84 expect dE=-0.158E-05 dE for cont linesearch -0.405E-07
 trial: gam= 0.18073 g(F)=  0.117E-05 g(S)=  0.719E-06 ort = 0.693E-06 (trialstep = 0.127E+01)
 search vector abs. value=  0.246E-05
 bond charge predicted
       N       E                     dE             d eps       ncg     rms          rms(c)
DAV:   1    -0.383515130870E+02   -0.42860E-05   -0.68099E-04 10904   0.190E-01    0.179E-02
DAV:   2    -0.383515109953E+02    0.20917E-05   -0.46875E-05 11488   0.893E-02    0.861E-03
DAV:   3    -0.383515100241E+02    0.97124E-06   -0.38469E-06 14544   0.226E-02    0.411E-03
DAV:   4    -0.383515095539E+02    0.47012E-06   -0.62391E-07 14052   0.113E-02    0.925E-04
DAV:   5    -0.383515095342E+02    0.19735E-07   -0.28579E-07 10952   0.424E-03    0.361E-04
DAV:   6    -0.383515095421E+02   -0.79440E-08   -0.11162E-08  6188   0.129E-03
  14 F= -.38351510E+02 E0= -.38350126E+02  d E =-.741706E-06
 trial-energy change:   -0.000001  1 .order   -0.000001   -0.000003   -0.000000
 step:   1.3425(harm=  1.3425)  dis= 0.00023  next Energy=   -38.351510 (dE=-0.135E-05)
 bond charge predicted
       N       E                     dE             d eps       ncg     rms          rms(c)
DAV:   1    -0.383515095844E+02   -0.50203E-07   -0.25441E-06 11064   0.117E-02    0.112E-03
DAV:   2    -0.383515095835E+02    0.90176E-09   -0.17541E-07 11592   0.562E-03    0.535E-04
DAV:   3    -0.383515095710E+02    0.12548E-07   -0.10223E-08  5704   0.143E-03    0.254E-04
DAV:   4    -0.383515095639E+02    0.71018E-08   -0.48190E-09  5376   0.847E-04
  15 F= -.38351510E+02 E0= -.38350126E+02  d E =-.763413E-06
 curvature:  -0.82 expect dE=-0.870E-06 dE for cont linesearch -0.579E-10
 trial: gam= 0.63735 g(F)=  0.588E-06 g(S)=  0.472E-06 ort =-0.132E-07 (trialstep = 0.128E+01)
 search vector abs. value=  0.204E-05
 bond charge predicted
       N       E                     dE             d eps       ncg     rms          rms(c)
DAV:   1    -0.383515110519E+02   -0.14809E-05   -0.64907E-04 10176   0.175E-01    0.143E-02
DAV:   2    -0.383515105958E+02    0.45615E-06   -0.39026E-05 11156   0.808E-02    0.616E-03
DAV:   3    -0.383515104761E+02    0.11967E-06   -0.30368E-06 12744   0.199E-02    0.309E-03
DAV:   4    -0.383515103731E+02    0.10297E-06   -0.42817E-07 14184   0.977E-03    0.780E-04
DAV:   5    -0.383515103962E+02   -0.23104E-07   -0.14921E-07 10716   0.311E-03    0.274E-04
DAV:   6    -0.383515103902E+02    0.60531E-08   -0.78920E-09  6144   0.856E-04
  16 F= -.38351510E+02 E0= -.38350128E+02  d E =-.826310E-06
 trial-energy change:   -0.000001  1 .order   -0.000001   -0.000001   -0.000000
 step:   1.4405(harm=  1.4936)  dis= 0.00015  next Energy=   -38.351510 (dE=-0.838E-06)
 bond charge predicted
       N       E                     dE             d eps       ncg     rms          rms(c)
DAV:   1    -0.383515104047E+02   -0.84724E-08   -0.10122E-05 10228   0.218E-02    0.181E-03
DAV:   2    -0.383515103852E+02    0.19529E-07   -0.60209E-07 11248   0.101E-02    0.772E-04
DAV:   3    -0.383515103956E+02   -0.10484E-07   -0.46575E-08 11060   0.250E-03    0.385E-04
DAV:   4    -0.383515104000E+02   -0.43406E-08   -0.51326E-09  5616   0.125E-03
  17 F= -.38351510E+02 E0= -.38350128E+02  d E =-.836132E-06
 curvature:  -1.36 expect dE=-0.770E-06 dE for cont linesearch -0.250E-09
 trial: gam= 0.59841 g(F)=  0.159E-06 g(S)=  0.407E-06 ort =-0.194E-07 (trialstep = 0.131E+01)
 search vector abs. value=  0.127E-05
 bond charge predicted
       N       E                     dE             d eps       ncg     rms          rms(c)
DAV:   1    -0.383515116645E+02   -0.12688E-05   -0.45056E-04 10028   0.145E-01    0.119E-02
DAV:   2    -0.383515111844E+02    0.48008E-06   -0.26770E-05 11548   0.652E-02    0.545E-03
DAV:   3    -0.383515108653E+02    0.31905E-06   -0.20181E-06 13384   0.174E-02    0.267E-03
DAV:   4    -0.383515106665E+02    0.19884E-06   -0.33866E-07 14676   0.824E-03    0.792E-04
DAV:   5    -0.383515106457E+02    0.20756E-07   -0.12286E-07 10928   0.273E-03    0.287E-04
DAV:   6    -0.383515106526E+02   -0.68580E-08   -0.62591E-09  6072   0.862E-04
  18 F= -.38351511E+02 E0= -.38350128E+02  d E =-.252620E-06
 trial-energy change:   -0.000000  1 .order   -0.000000   -0.000001    0.000000
 step:   0.9998(harm=  0.9998)  dis= 0.00009  next Energy=   -38.351511 (dE=-0.277E-06)
 bond charge predicted
       N       E                     dE             d eps       ncg     rms          rms(c)
DAV:   1    -0.383515106868E+02   -0.41080E-07   -0.25505E-05 10044   0.345E-02    0.282E-03
DAV:   2    -0.383515106464E+02    0.40441E-07   -0.15109E-06 11488   0.155E-02    0.130E-03
DAV:   3    -0.383515106634E+02   -0.17017E-07   -0.11402E-07 13248   0.412E-03    0.640E-04
DAV:   4    -0.383515106734E+02   -0.10025E-07   -0.13185E-08  5960   0.196E-03    0.202E-04
DAV:   5    -0.383515106810E+02   -0.76011E-08   -0.12217E-08  5832   0.931E-04
  19 F= -.38351511E+02 E0= -.38350128E+02  d E =-.281044E-06
 curvature:  -1.15 expect dE=-0.236E-06 dE for cont linesearch -0.327E-10
 trial: gam= 0.35972 g(F)=  0.959E-07 g(S)=  0.109E-06 ort = 0.602E-08 (trialstep = 0.125E+01)
 search vector abs. value=  0.375E-06
 bond charge predicted
       N       E                     dE             d eps       ncg     rms          rms(c)
DAV:   1    -0.383515111668E+02   -0.49341E-06   -0.10798E-04  9968   0.612E-02    0.532E-03
DAV:   2    -0.383515109956E+02    0.17121E-06   -0.34810E-06 11856   0.221E-02    0.302E-03
DAV:   3    -0.383515109009E+02    0.94782E-07   -0.37309E-07 13652   0.757E-03    0.124E-03
DAV:   4    -0.383515108886E+02    0.12262E-07   -0.10126E-07 11180   0.391E-03    0.219E-04
DAV:   5    -0.383515108895E+02   -0.88858E-09   -0.28278E-08  8584   0.164E-03
  20 F= -.38351511E+02 E0= -.38350128E+02  d E =-.208447E-06
 trial-energy change:   -0.000000  1 .order   -0.000000   -0.000000   -0.000000
 step:   1.4111(harm=  1.6712)  dis= 0.00008  next Energy=   -38.351511 (dE=-0.213E-06)
 bond charge predicted
       N       E                     dE             d eps       ncg     rms          rms(c)
DAV:   1    -0.383515109012E+02   -0.12658E-07   -0.18085E-06 10080   0.794E-03    0.713E-04
DAV:   2    -0.383515108961E+02    0.51696E-08   -0.58343E-08 10800   0.287E-03
  21 F= -.38351511E+02 E0= -.38350128E+02  d E =-.215047E-06
 curvature:  -0.93 expect dE=-0.198E-06 dE for cont linesearch -0.143E-07
 trial: gam= 0.00000 g(F)=  0.653E-07 g(S)=  0.146E-06 ort = 0.756E-07 (trialstep = 0.128E+01)
 search vector abs. value=  0.212E-06
 bond charge predicted
       N       E                     dE             d eps       ncg     rms          rms(c)
DAV:   1    -0.383515127129E+02   -0.18117E-05   -0.55490E-05 12724   0.875E-02    0.101E-02
DAV:   2    -0.383515113294E+02    0.13835E-05   -0.96051E-06 12360   0.486E-02    0.418E-03
DAV:   3    -0.383515110203E+02    0.30916E-06   -0.79801E-07 14736   0.108E-02    0.197E-03
DAV:   4    -0.383515108757E+02    0.14459E-06   -0.12348E-07 14676   0.522E-03    0.472E-04
DAV:   5    -0.383515108634E+02    0.12233E-07   -0.56312E-08 10368   0.198E-03    0.232E-04
DAV:   6    -0.383515108689E+02   -0.54533E-08   -0.30697E-09  5540   0.534E-04
  22 F= -.38351511E+02 E0= -.38350128E+02  d E =0.271766E-07
 trial-energy change:    0.000000  1 .order   -0.000000   -0.000000    0.000000
 step:   0.4883(harm=  0.7525)  dis= 0.00001  next Energy=   -38.351511 (dE=-0.479E-07)
 bond charge predicted
       N       E                     dE             d eps       ncg     rms          rms(c)
DAV:   1    -0.383515114943E+02   -0.63084E-06   -0.21288E-05 12732   0.543E-02    0.622E-03
DAV:   2    -0.383515109534E+02    0.54088E-06   -0.36937E-06 12312   0.301E-02    0.258E-03
DAV:   3    -0.383515109236E+02    0.29822E-07   -0.30468E-07 14808   0.665E-03    0.122E-03
DAV:   4    -0.383515109285E+02   -0.48703E-08   -0.41943E-08 11328   0.323E-03
  23 F= -.38351511E+02 E0= -.38350128E+02  d E =-.323757E-07
 curvature:  -0.28 expect dE=-0.820E-07 dE for cont linesearch -0.405E-07
 trial: gam= 0.00000 g(F)=  0.499E-07 g(S)=  0.240E-06 ort = 0.174E-06 (trialstep = 0.820E+00)
 search vector abs. value=  0.290E-06
 reached required accuracy - stopping structural energy minimisation
 writing wavefunctions
Thu Jan  6 01:42:02 CST 2022
