Wed Jan  5 23:44:23 CST 2022
 running on   48 total cores
 distrk:  each k-point on   48 cores,    1 groups
 distr:  one band on   24 cores,    2 groups
 using from now: INCAR     
 vasp.5.3.5 31Mar14 (build Jan 11 2016 19:50:55) complex                        
  
 POSCAR found type information on POSCAR  Zn Ga N  O 
 POSCAR found :  4 types and       8 ions
 scaLAPACK will be used

 ----------------------------------------------------------------------------- 
|                                                                             |
|           W    W    AA    RRRRR   N    N  II  N    N   GGGG   !!!           |
|           W    W   A  A   R    R  NN   N  II  NN   N  G    G  !!!           |
|           W    W  A    A  R    R  N N  N  II  N N  N  G       !!!           |
|           W WW W  AAAAAA  RRRRR   N  N N  II  N  N N  G  GGG   !            |
|           WW  WW  A    A  R   R   N   NN  II  N   NN  G    G                |
|           W    W  A    A  R    R  N    N  II  N    N   GGGG   !!!           |
|                                                                             |
|      For optimal performance we recommend to set                            |
|        NCORE= 4 - approx SQRT( number of cores)                             |
|      NCORE specifies how many cores store one orbital (NPAR=cpu/NCORE).     |
|      This setting can  greatly improve the performance of VASP for DFT.     |
|      The default, NPAR=number of cores might be grossly inefficient         |
|      on modern multi-core architectures or massively parallel machines.     |
|      Do your own testing !!!!                                               |
|      Unfortunately you need to use the default for GW and RPA calculations. |
|      (for HF NCORE is supported but not extensively tested yet)             |
|                                                                             |
 ----------------------------------------------------------------------------- 

 LDA part: xc-table for Pade appr. of Perdew
 POSCAR, INCAR and KPOINTS ok, starting setup
 WARNING: small aliasing (wrap around) errors must be expected
 FFT: planning ...
 WAVECAR not read
 entering main loop
       N       E                     dE             d eps       ncg     rms          rms(c)
DAV:   1     0.879989433483E+03    0.87999E+03   -0.41459E+04 10140   0.300E+03
DAV:   2     0.143775401763E+03   -0.73621E+03   -0.70832E+03 10176   0.734E+02
DAV:   3    -0.277128102368E+02   -0.17149E+03   -0.16692E+03 11412   0.254E+02
DAV:   4    -0.432408701752E+02   -0.15528E+02   -0.15356E+02 12604   0.778E+01
DAV:   5    -0.436766307744E+02   -0.43576E+00   -0.43410E+00 11316   0.128E+01    0.151E+01
DAV:   6    -0.381700046234E+02    0.55066E+01   -0.19308E+01 18340   0.587E+01    0.728E+00
DAV:   7    -0.384540087713E+02   -0.28400E+00   -0.59979E+00 10296   0.145E+01    0.505E+00
DAV:   8    -0.384591424316E+02   -0.51337E-02   -0.23080E+00 16172   0.119E+01    0.267E+00
DAV:   9    -0.383082599715E+02    0.15088E+00   -0.61387E-01 14940   0.804E+00    0.670E-01
DAV:  10    -0.383207511611E+02   -0.12491E-01   -0.23818E-01 12520   0.276E+00    0.526E-01
DAV:  11    -0.383181038242E+02    0.26473E-02   -0.28594E-02 12664   0.162E+00    0.144E-01
DAV:  12    -0.383185696422E+02   -0.46582E-03   -0.42755E-03 10888   0.495E-01    0.592E-02
DAV:  13    -0.383188300672E+02   -0.26042E-03   -0.58613E-04 13764   0.163E-01    0.296E-02
DAV:  14    -0.383188667926E+02   -0.36725E-04   -0.75018E-05 12076   0.894E-02    0.888E-03
DAV:  15    -0.383188879861E+02   -0.21194E-04   -0.62318E-05 16444   0.846E-02    0.168E-02
DAV:  16    -0.383188852173E+02    0.27688E-05   -0.22692E-05 13420   0.343E-02    0.632E-03
DAV:  17    -0.383188852298E+02   -0.12421E-07   -0.10561E-05 15636   0.280E-02    0.319E-03
DAV:  18    -0.383188852705E+02   -0.40730E-07   -0.21625E-06 12260   0.110E-02    0.832E-04
DAV:  19    -0.383188852838E+02   -0.13270E-07   -0.27419E-07 11116   0.400E-03    0.321E-04
DAV:  20    -0.383188852755E+02    0.83114E-08   -0.38073E-08 10244   0.185E-03
   1 F= -.38318885E+02 E0= -.38318508E+02  d E =-.383189E+02
 curvature:   0.00 expect dE= 0.000E+00 dE for cont linesearch  0.000E+00
 trial: gam= 0.00000 g(F)=  0.321E-02 g(S)=  0.237E-01 ort = 0.000E+00 (trialstep = 0.100E+01)
 search vector abs. value=  0.269E-01
 bond charge predicted
       N       E                     dE             d eps       ncg     rms          rms(c)
DAV:   1    -0.384798359911E+02   -0.16095E+00   -0.40703E+00 11432   0.200E+01    0.291E+00
DAV:   2    -0.383555764597E+02    0.12426E+00   -0.73037E-01 12008   0.118E+01    0.123E+00
DAV:   3    -0.383330311392E+02    0.22545E-01   -0.58498E-02 13632   0.269E+00    0.602E-01
DAV:   4    -0.383254228184E+02    0.76083E-02   -0.15351E-02 13004   0.136E+00    0.167E-01
DAV:   5    -0.383252650063E+02    0.15781E-03   -0.48672E-03 11176   0.638E-01    0.837E-02
DAV:   6    -0.383251807015E+02    0.84305E-04   -0.13466E-03 16344   0.309E-01    0.427E-02
DAV:   7    -0.383251776785E+02    0.30230E-05   -0.54373E-04 13396   0.203E-01    0.179E-02
DAV:   8    -0.383251771068E+02    0.57173E-06   -0.50405E-05 11248   0.653E-02    0.109E-02
DAV:   9    -0.383251789063E+02   -0.17996E-05   -0.13477E-05 12728   0.400E-02    0.459E-03
DAV:  10    -0.383251790587E+02   -0.15240E-06   -0.17464E-06 12836   0.237E-02    0.181E-03
DAV:  11    -0.383251791182E+02   -0.59432E-07   -0.10375E-06 12084   0.859E-03    0.114E-03
DAV:  12    -0.383251791408E+02   -0.22671E-07   -0.18497E-07 11384   0.312E-03    0.759E-04
DAV:  13    -0.383251791514E+02   -0.10597E-07   -0.91741E-08 12004   0.230E-03    0.358E-04
DAV:  14    -0.383251791562E+02   -0.48149E-08   -0.16223E-08  6856   0.192E-03
   2 F= -.38325179E+02 E0= -.38324910E+02  d E =-.629388E-02
 trial-energy change:   -0.006294  1 .order   -0.006123   -0.026879    0.014633
 step:   0.6531(harm=  0.6475)  dis= 0.00549  next Energy=   -38.327710 (dE=-0.882E-02)
 bond charge predicted
       N       E                     dE             d eps       ncg     rms          rms(c)
DAV:   1    -0.383465309931E+02   -0.21352E-01   -0.48726E-01 11600   0.677E+00    0.101E+00
DAV:   2    -0.383313326084E+02    0.15198E-01   -0.88147E-02 11936   0.417E+00    0.424E-01
DAV:   3    -0.383286501203E+02    0.26825E-02   -0.70739E-03 13528   0.101E+00    0.210E-01
DAV:   4    -0.383277635919E+02    0.88653E-03   -0.19380E-03 12796   0.493E-01    0.600E-02
DAV:   5    -0.383277441029E+02    0.19489E-04   -0.58712E-04 11212   0.224E-01    0.288E-02
DAV:   6    -0.383277353612E+02    0.87417E-05   -0.15233E-04 16552   0.109E-01    0.141E-02
DAV:   7    -0.383277350386E+02    0.32265E-06   -0.57836E-05 13300   0.709E-02    0.576E-03
DAV:   8    -0.383277350758E+02   -0.37187E-07   -0.59078E-06 11816   0.230E-02    0.400E-03
DAV:   9    -0.383277351024E+02   -0.26614E-07   -0.16816E-06 12856   0.165E-02    0.182E-03
DAV:  10    -0.383277350565E+02    0.45894E-07   -0.28763E-07 12660   0.854E-03    0.666E-04
DAV:  11    -0.383277350524E+02    0.40377E-08   -0.12831E-07 12628   0.337E-03    0.396E-04
DAV:  12    -0.383277350548E+02   -0.24006E-08   -0.33285E-08  9576   0.168E-03
   3 F= -.38327735E+02 E0= -.38327437E+02  d E =-.884978E-02
 curvature:  -0.32 expect dE=-0.450E-01 dE for cont linesearch -0.132E-06
 trial: gam= 5.17397 g(F)=  0.116E+00 g(S)=  0.229E-01 ort = 0.105E-03 (trialstep = 0.291E-01)
 search vector abs. value=  0.860E+00
 bond charge predicted
       N       E                     dE             d eps       ncg     rms          rms(c)
DAV:   1    -0.383364195102E+02   -0.86845E-02   -0.97039E-02 12032   0.354E+00    0.506E-01
DAV:   2    -0.383324190447E+02    0.40005E-02   -0.19975E-02 12176   0.211E+00    0.211E-01
DAV:   3    -0.383317416127E+02    0.67743E-03   -0.15286E-03 13836   0.434E-01    0.102E-01
DAV:   4    -0.383315043386E+02    0.23727E-03   -0.37266E-04 14892   0.220E-01    0.242E-02
DAV:   5    -0.383315005378E+02    0.38008E-05   -0.13366E-04 11252   0.104E-01    0.133E-02
DAV:   6    -0.383314982121E+02    0.23257E-05   -0.37306E-05 16984   0.519E-02    0.749E-03
DAV:   7    -0.383314979542E+02    0.25787E-06   -0.14221E-05 13404   0.297E-02    0.271E-03
DAV:   8    -0.383314980321E+02   -0.77862E-07   -0.13307E-06 10468   0.877E-03    0.199E-03
DAV:   9    -0.383314981421E+02   -0.11002E-06   -0.38844E-07 12928   0.527E-03    0.629E-04
DAV:  10    -0.383314981501E+02   -0.80195E-08   -0.44068E-08 10112   0.276E-03
   4 F= -.38331498E+02 E0= -.38331194E+02  d E =-.376310E-02
 ZBRENT: can't locate minimum, use default step
 trial-energy change:   -0.003763  1 .order   -0.003764   -0.004065   -0.003464
 step:   0.1164(harm=  0.1969)  dis= 0.00123  next Energy=   -38.341492 (dE=-0.138E-01)
 bond charge predicted
       N       E                     dE             d eps       ncg     rms          rms(c)
DAV:   1    -0.383830667121E+02   -0.51569E-01   -0.86893E-01 12024   0.106E+01    0.151E+00
DAV:   2    -0.383473604331E+02    0.35706E-01   -0.17697E-01 12344   0.626E+00    0.630E-01
DAV:   3    -0.383413463239E+02    0.60141E-02   -0.13610E-02 13864   0.126E+00    0.305E-01
DAV:   4    -0.383392289785E+02    0.21173E-02   -0.32873E-03 15008   0.638E-01    0.703E-02
DAV:   5    -0.383392035428E+02    0.25436E-04   -0.11776E-03 11224   0.311E-01    0.393E-02
DAV:   6    -0.383391832081E+02    0.20335E-04   -0.31159E-04 17224   0.153E-01    0.212E-02
DAV:   7    -0.383391816642E+02    0.15439E-05   -0.11947E-04 13412   0.851E-02    0.834E-03
DAV:   8    -0.383391819952E+02   -0.33103E-06   -0.10734E-05 10492   0.249E-02    0.592E-03
DAV:   9    -0.383391824917E+02   -0.49651E-06   -0.33202E-06 13136   0.151E-02    0.191E-03
DAV:  10    -0.383391825156E+02   -0.23900E-07   -0.34221E-07 11296   0.913E-03    0.943E-04
DAV:  11    -0.383391825295E+02   -0.13855E-07   -0.26005E-07 13424   0.416E-03    0.583E-04
DAV:  12    -0.383391825326E+02   -0.31628E-08   -0.37552E-08 10200   0.224E-03
   5 F= -.38339183E+02 E0= -.38338861E+02  d E =-.114475E-01
 curvature:  -0.47 expect dE=-0.128E-01 dE for cont linesearch -0.184E-02
 ZBRENT: increasing intervall
 opt :   0.2909  next Energy=   -38.338720 (dE=-0.110E-01)
 bond charge predicted
       N       E                     dE             d eps       ncg     rms          rms(c)
DAV:   1    -0.385111705725E+02   -0.17199E+00   -0.34313E+00 12000   0.212E+01    0.300E+00
DAV:   2    -0.383709474266E+02    0.14022E+00   -0.68933E-01 12736   0.123E+01    0.125E+00
DAV:   3    -0.383473871017E+02    0.23560E-01   -0.52933E-02 13672   0.239E+00    0.611E-01
DAV:   4    -0.383389546507E+02    0.84325E-02   -0.12765E-02 15184   0.117E+00    0.129E-01
DAV:   5    -0.383388921037E+02    0.62547E-04   -0.43606E-03 11144   0.615E-01    0.734E-02
DAV:   6    -0.383388154064E+02    0.76697E-04   -0.91528E-04 17560   0.284E-01    0.346E-02
DAV:   7    -0.383388193568E+02   -0.39504E-05   -0.36001E-04 13028   0.145E-01    0.172E-02
DAV:   8    -0.383388201878E+02   -0.83099E-06   -0.30493E-05 10688   0.396E-02    0.117E-02
DAV:   9    -0.383388216309E+02   -0.14431E-05   -0.10660E-05 12872   0.221E-02    0.373E-03
DAV:  10    -0.383388216447E+02   -0.13807E-07   -0.12947E-06 12380   0.132E-02    0.167E-03
DAV:  11    -0.383388217142E+02   -0.69449E-07   -0.10125E-06 13240   0.729E-03    0.133E-03
DAV:  12    -0.383388217322E+02   -0.18020E-07   -0.16763E-07 12952   0.497E-03    0.665E-04
DAV:  13    -0.383388217383E+02   -0.60736E-08   -0.69262E-08 11620   0.262E-03
   6 F= -.38338822E+02 E0= -.38338456E+02  d E =-.110867E-01
 curvature:   0.12 expect dE= 0.805E-02 dE for cont linesearch  0.511E-03
 ZBRENT: bracketing found
 ZBRENT: interpolating
 opt :   0.2015  next Energy=   -38.341660 (dE=-0.139E-01)
 bond charge predicted
       N       E                     dE             d eps       ncg     rms          rms(c)
DAV:   1    -0.383871251358E+02   -0.48303E-01   -0.89017E-01 12192   0.106E+01    0.154E+00
DAV:   2    -0.383499408449E+02    0.37184E-01   -0.18681E-01 12072   0.636E+00    0.636E-01
DAV:   3    -0.383437725743E+02    0.61683E-02   -0.14085E-02 13804   0.135E+00    0.309E-01
DAV:   4    -0.383416371488E+02    0.21354E-02   -0.36023E-03 14748   0.684E-01    0.748E-02
DAV:   5    -0.383416036005E+02    0.33548E-04   -0.12308E-03 11300   0.316E-01    0.408E-02
DAV:   6    -0.383415821849E+02    0.21416E-04   -0.35020E-04 17036   0.161E-01    0.229E-02
DAV:   7    -0.383415793345E+02    0.28503E-05   -0.13293E-04 13408   0.904E-02    0.814E-03
DAV:   8    -0.383415795737E+02   -0.23918E-06   -0.12547E-05 10704   0.263E-02    0.612E-03
DAV:   9    -0.383415795859E+02   -0.12151E-07   -0.35586E-06 12856   0.155E-02    0.184E-03
DAV:  10    -0.383415795597E+02    0.26174E-07   -0.41636E-07 11304   0.795E-03    0.848E-04
DAV:  11    -0.383415795697E+02   -0.10031E-07   -0.20545E-07 14176   0.388E-03    0.507E-04
DAV:  12    -0.383415795706E+02   -0.83901E-09   -0.32574E-08  9328   0.240E-03
   7 F= -.38341580E+02 E0= -.38341238E+02  d E =-.138445E-01
 curvature:  -0.57 expect dE=-0.103E-01 dE for cont linesearch -0.753E-06
 trial: gam= 0.17115 g(F)=  0.988E-02 g(S)=  0.820E-02 ort =-0.107E-02 (trialstep = 0.636E-01)
 search vector abs. value=  0.429E-01
 bond charge predicted
       N       E                     dE             d eps       ncg     rms          rms(c)
DAV:   1    -0.383430400087E+02   -0.14604E-02   -0.20240E-02 10436   0.943E-01    0.144E-01
DAV:   2    -0.383428051914E+02    0.23482E-03   -0.13527E-03 11192   0.502E-01    0.770E-02
DAV:   3    -0.383427109153E+02    0.94276E-04   -0.17311E-04 14620   0.165E-01    0.324E-02
DAV:   4    -0.383426922707E+02    0.18645E-04   -0.48473E-05 12664   0.800E-02    0.619E-03
DAV:   5    -0.383426929974E+02   -0.72670E-06   -0.16172E-05 10480   0.370E-02    0.374E-03
DAV:   6    -0.383426930542E+02   -0.56841E-07   -0.24186E-06 12812   0.114E-02    0.186E-03
DAV:   7    -0.383426930660E+02   -0.11820E-07   -0.54692E-07 13116   0.102E-02    0.105E-03
DAV:   8    -0.383426930933E+02   -0.27250E-07   -0.12012E-07 12520   0.338E-03    0.681E-04
DAV:   9    -0.383426930994E+02   -0.60836E-08   -0.30425E-08  8508   0.183E-03
   8 F= -.38342693E+02 E0= -.38342352E+02  d E =-.111353E-02
 ZBRENT: can't locate minimum, use default step
 trial-energy change:   -0.001114  1 .order   -0.001115   -0.001138   -0.001093
 step:   0.2543(harm=  1.6004)  dis= 0.00306  next Energy=   -38.355904 (dE=-0.143E-01)
 bond charge predicted
       N       E                     dE             d eps       ncg     rms          rms(c)
DAV:   1    -0.383488808365E+02   -0.61877E-02   -0.18187E-01 10448   0.283E+00    0.431E-01
DAV:   2    -0.383467728284E+02    0.21080E-02   -0.12180E-02 11192   0.150E+00    0.231E-01
DAV:   3    -0.383459326113E+02    0.84022E-03   -0.15529E-03 14820   0.492E-01    0.969E-02
DAV:   4    -0.383457674050E+02    0.16521E-03   -0.43467E-04 12656   0.240E-01    0.185E-02
DAV:   5    -0.383457743064E+02   -0.69014E-05   -0.14423E-04 10488   0.111E-01    0.112E-02
DAV:   6    -0.383457747314E+02   -0.42502E-06   -0.21732E-05 12820   0.338E-02    0.557E-03
DAV:   7    -0.383457746770E+02    0.54365E-07   -0.48539E-06 13120   0.304E-02    0.313E-03
DAV:   8    -0.383457748234E+02   -0.14637E-06   -0.10690E-06 12596   0.101E-02    0.202E-03
DAV:   9    -0.383457748287E+02   -0.52814E-08   -0.29096E-07 14060   0.539E-03    0.590E-04
DAV:  10    -0.383457748364E+02   -0.77212E-08   -0.59728E-08 12032   0.276E-03
   9 F= -.38345775E+02 E0= -.38345435E+02  d E =-.419527E-02
 curvature:  -0.45 expect dE=-0.636E-02 dE for cont linesearch -0.234E-02
 ZBRENT: increasing intervall
 opt :   0.6357  next Energy=   -38.350667 (dE=-0.909E-02)
 bond charge predicted
       N       E                     dE             d eps       ncg     rms          rms(c)
DAV:   1    -0.383629546504E+02   -0.17180E-01   -0.72470E-01 10436   0.566E+00    0.858E-01
DAV:   2    -0.383546247469E+02    0.83299E-02   -0.48685E-02 11192   0.299E+00    0.459E-01
DAV:   3    -0.383512881290E+02    0.33366E-02   -0.61043E-03 15200   0.968E-01    0.193E-01
DAV:   4    -0.383506361027E+02    0.65203E-03   -0.17390E-03 12620   0.477E-01    0.366E-02
DAV:   5    -0.383506633174E+02   -0.27215E-04   -0.56142E-04 10468   0.216E-01    0.222E-02
DAV:   6    -0.383506647598E+02   -0.14424E-05   -0.85039E-05 12764   0.640E-02    0.111E-02
DAV:   7    -0.383506643829E+02    0.37689E-06   -0.18913E-05 13156   0.587E-02    0.611E-03
DAV:   8    -0.383506648489E+02   -0.46597E-06   -0.40719E-06 12648   0.199E-02    0.396E-03
DAV:   9    -0.383506648278E+02    0.21038E-07   -0.11704E-06 14136   0.100E-02    0.114E-03
DAV:  10    -0.383506648454E+02   -0.17563E-07   -0.22904E-07 13120   0.534E-03    0.550E-04
DAV:  11    -0.383506648702E+02   -0.24827E-07   -0.76807E-08 11236   0.221E-03    0.279E-04
DAV:  12    -0.383506648720E+02   -0.17558E-08   -0.10322E-08  5884   0.101E-03
  10 F= -.38350665E+02 E0= -.38350328E+02  d E =-.908530E-02
 curvature:  -0.93 expect dE=-0.142E-01 dE for cont linesearch -0.247E-02
 ZBRENT: increasing intervall
 opt :   1.3985  next Energy=   -38.355488 (dE=-0.139E-01)
 bond charge predicted
       N       E                     dE             d eps       ncg     rms          rms(c)
DAV:   1    -0.384035846097E+02   -0.52920E-01   -0.28769E+00 10440   0.113E+01    0.170E+00
DAV:   2    -0.383711340476E+02    0.32451E-01   -0.19479E-01 11192   0.591E+00    0.912E-01
DAV:   3    -0.383579523831E+02    0.13182E-01   -0.23860E-02 14976   0.187E+00    0.382E-01
DAV:   4    -0.383553943812E+02    0.25580E-02   -0.68001E-03 12604   0.943E-01    0.719E-02
DAV:   5    -0.383554985591E+02   -0.10418E-03   -0.21340E-03 10476   0.419E-01    0.438E-02
DAV:   6    -0.383555039728E+02   -0.54137E-05   -0.33326E-04 12452   0.123E-01    0.219E-02
DAV:   7    -0.383555020231E+02    0.19497E-05   -0.70837E-05 13364   0.115E-01    0.117E-02
DAV:   8    -0.383555036926E+02   -0.16695E-05   -0.15561E-05 12912   0.383E-02    0.767E-03
DAV:   9    -0.383555035479E+02    0.14469E-06   -0.46338E-06 14152   0.198E-02    0.217E-03
DAV:  10    -0.383555035859E+02   -0.37954E-07   -0.85320E-07 13196   0.106E-02    0.103E-03
DAV:  11    -0.383555036574E+02   -0.71474E-07   -0.30782E-07 12092   0.430E-03    0.555E-04
DAV:  12    -0.383555036619E+02   -0.45138E-08   -0.51740E-08 10420   0.229E-03
  11 F= -.38355504E+02 E0= -.38355166E+02  d E =-.139241E-01
 curvature:  -1.82 expect dE=-0.773E-01 dE for cont linesearch -0.170E-03
 trial: gam= 2.20688 g(F)=  0.388E-01 g(S)=  0.367E-02 ort = 0.200E-02 (trialstep = 0.545E-01)
 search vector abs. value=  0.260E+00
 bond charge predicted
       N       E                     dE             d eps       ncg     rms          rms(c)
DAV:   1    -0.383582676784E+02   -0.27640E-02   -0.10181E-01 10168   0.201E+00    0.254E-01
DAV:   2    -0.383578266483E+02    0.44103E-03   -0.56598E-03 11632   0.915E-01    0.149E-01
DAV:   3    -0.383574834760E+02    0.34317E-03   -0.74561E-04 14348   0.313E-01    0.592E-02
DAV:   4    -0.383574312060E+02    0.52270E-04   -0.18529E-04 12024   0.150E-01    0.110E-02
DAV:   5    -0.383574353242E+02   -0.41183E-05   -0.54427E-05 11004   0.645E-02    0.675E-03
DAV:   6    -0.383574354121E+02   -0.87849E-07   -0.35341E-06 12676   0.205E-02    0.307E-03
DAV:   7    -0.383574354809E+02   -0.68856E-07   -0.70880E-07 12156   0.158E-02    0.142E-03
DAV:   8    -0.383574355270E+02   -0.46028E-07   -0.21019E-07 13340   0.456E-03    0.758E-04
DAV:   9    -0.383574355352E+02   -0.82346E-08   -0.42448E-08 10476   0.195E-03
  12 F= -.38357436E+02 E0= -.38357078E+02  d E =-.193187E-02
 trial-energy change:   -0.001932  1 .order   -0.001934   -0.002557   -0.001312
 step:   0.1119(harm=  0.1119)  dis= 0.00355  next Energy=   -38.358129 (dE=-0.263E-02)
 bond charge predicted
       N       E                     dE             d eps       ncg     rms          rms(c)
DAV:   1    -0.383590583039E+02   -0.16228E-02   -0.11281E-01 10168   0.211E+00    0.267E-01
DAV:   2    -0.383585737884E+02    0.48452E-03   -0.62867E-03 11632   0.964E-01    0.157E-01
DAV:   3    -0.383581939932E+02    0.37980E-03   -0.82451E-04 14340   0.331E-01    0.624E-02
DAV:   4    -0.383581359122E+02    0.58081E-04   -0.20598E-04 11984   0.158E-01    0.116E-02
DAV:   5    -0.383581405039E+02   -0.45918E-05   -0.60471E-05 11004   0.678E-02    0.710E-03
DAV:   6    -0.383581405888E+02   -0.84832E-07   -0.38784E-06 12596   0.211E-02    0.322E-03
DAV:   7    -0.383581406642E+02   -0.75407E-07   -0.77984E-07 12128   0.164E-02    0.149E-03
DAV:   8    -0.383581407134E+02   -0.49291E-07   -0.22870E-07 13268   0.492E-03    0.795E-04
DAV:   9    -0.383581407223E+02   -0.88635E-08   -0.47715E-08 10984   0.211E-03
  13 F= -.38358141E+02 E0= -.38357760E+02  d E =-.263706E-02
 curvature:  -0.31 expect dE=-0.393E-02 dE for cont linesearch -0.348E-06
 trial: gam= 0.40518 g(F)=  0.617E-02 g(S)=  0.649E-02 ort = 0.541E-03 (trialstep = 0.660E-01)
 search vector abs. value=  0.558E-01
 bond charge predicted
       N       E                     dE             d eps       ncg     rms          rms(c)
DAV:   1    -0.383592992208E+02   -0.11585E-02   -0.31861E-02 10328   0.120E+00    0.158E-01
DAV:   2    -0.383590790114E+02    0.22021E-03   -0.23095E-03 11224   0.624E-01    0.856E-02
DAV:   3    -0.383589819620E+02    0.97049E-04   -0.25910E-04 14204   0.191E-01    0.380E-02
DAV:   4    -0.383589558336E+02    0.26128E-04   -0.57448E-05 12660   0.101E-01    0.682E-03
DAV:   5    -0.383589571801E+02   -0.13465E-05   -0.20106E-05 10592   0.415E-02    0.410E-03
DAV:   6    -0.383589572074E+02   -0.27310E-07   -0.19941E-06 13556   0.157E-02    0.238E-03
DAV:   7    -0.383589571824E+02    0.25043E-07   -0.34332E-07 12488   0.108E-02    0.102E-03
DAV:   8    -0.383589571826E+02   -0.21828E-09   -0.12394E-07 13064   0.360E-03    0.513E-04
DAV:   9    -0.383589571769E+02    0.57021E-08   -0.20365E-08  6588   0.156E-03
  14 F= -.38358957E+02 E0= -.38358574E+02  d E =-.816455E-03
 ZBRENT: can't locate minimum, use default step
 trial-energy change:   -0.000816  1 .order   -0.000815   -0.000849   -0.000780
 step:   0.2639(harm=  0.8128)  dis= 0.00439  next Energy=   -38.361570 (dE=-0.343E-02)
 bond charge predicted
       N       E                     dE             d eps       ncg     rms          rms(c)
DAV:   1    -0.383640974966E+02   -0.51403E-02   -0.28646E-01 10324   0.358E+00    0.473E-01
DAV:   2    -0.383621077655E+02    0.19897E-02   -0.20789E-02 11220   0.186E+00    0.257E-01
DAV:   3    -0.383612245611E+02    0.88320E-03   -0.23106E-03 14208   0.576E-01    0.114E-01
DAV:   4    -0.383609854262E+02    0.23913E-03   -0.51675E-04 12620   0.305E-01    0.204E-02
DAV:   5    -0.383609970231E+02   -0.11597E-04   -0.18301E-04 10592   0.126E-01    0.123E-02
DAV:   6    -0.383609974637E+02   -0.44056E-06   -0.17957E-05 13512   0.472E-02    0.714E-03
DAV:   7    -0.383609973818E+02    0.81936E-07   -0.31669E-06 12504   0.332E-02    0.312E-03
DAV:   8    -0.383609974573E+02   -0.75556E-07   -0.11337E-06 13412   0.106E-02    0.157E-03
DAV:   9    -0.383609974468E+02    0.10554E-07   -0.23134E-07 13048   0.469E-03    0.644E-04
DAV:  10    -0.383609974368E+02    0.99917E-08   -0.52912E-08 10552   0.267E-03
  15 F= -.38360997E+02 E0= -.38360608E+02  d E =-.285671E-02
 curvature:  -0.81 expect dE=-0.663E-02 dE for cont linesearch -0.108E-02
 ZBRENT: increasing intervall
 opt :   0.6597  next Energy=   -38.363133 (dE=-0.499E-02)
 bond charge predicted
       N       E                     dE             d eps       ncg     rms          rms(c)
DAV:   1    -0.383756845056E+02   -0.14687E-01   -0.11446E+00 10324   0.715E+00    0.949E-01
DAV:   2    -0.383676250761E+02    0.80594E-02   -0.83608E-02 11232   0.370E+00    0.514E-01
DAV:   3    -0.383640725186E+02    0.35526E-02   -0.91051E-03 14200   0.116E+00    0.230E-01
DAV:   4    -0.383631043225E+02    0.96820E-03   -0.20867E-03 12776   0.612E-01    0.410E-02
DAV:   5    -0.383631496330E+02   -0.45311E-04   -0.73227E-04 10580   0.256E-01    0.244E-02
DAV:   6    -0.383631518122E+02   -0.21791E-05   -0.74366E-05 13604   0.940E-02    0.144E-02
DAV:   7    -0.383631515650E+02    0.24714E-06   -0.12849E-05 12088   0.650E-02    0.642E-03
DAV:   8    -0.383631519607E+02   -0.39573E-06   -0.48547E-06 13948   0.204E-02    0.331E-03
DAV:   9    -0.383631519454E+02    0.15306E-07   -0.99523E-07 13240   0.967E-03    0.132E-03
DAV:  10    -0.383631519466E+02   -0.12087E-08   -0.23021E-07 10928   0.559E-03    0.595E-04
DAV:  11    -0.383631519424E+02    0.42637E-08   -0.66343E-08 12708   0.203E-03
  16 F= -.38363152E+02 E0= -.38362747E+02  d E =-.501122E-02
 curvature:  -1.61 expect dE=-0.925E-02 dE for cont linesearch -0.142E-03
 ZBRENT: extrapolating
 opt :   0.7970  next Energy=   -38.363304 (dE=-0.516E-02)
 bond charge predicted
       N       E                     dE             d eps       ncg     rms          rms(c)
DAV:   1    -0.383648256542E+02   -0.16737E-02   -0.13821E-01 10340   0.251E+00    0.331E-01
DAV:   2    -0.383638490153E+02    0.97664E-03   -0.10248E-02 11232   0.131E+00    0.179E-01
DAV:   3    -0.383634264049E+02    0.42261E-03   -0.11372E-03 14180   0.404E-01    0.799E-02
DAV:   4    -0.383633095365E+02    0.11687E-03   -0.25247E-04 12648   0.215E-01    0.146E-02
DAV:   5    -0.383633150663E+02   -0.55297E-05   -0.89208E-05 10616   0.883E-02    0.857E-03
DAV:   6    -0.383633152849E+02   -0.21863E-06   -0.92158E-06 13784   0.334E-02    0.502E-03
DAV:   7    -0.383633152232E+02    0.61663E-07   -0.15574E-06 12516   0.229E-02    0.220E-03
DAV:   8    -0.383633152518E+02   -0.28607E-07   -0.58365E-07 13596   0.751E-03    0.112E-03
DAV:   9    -0.383633152419E+02    0.99385E-08   -0.11634E-07 12764   0.338E-03    0.457E-04
DAV:  10    -0.383633152329E+02    0.89995E-08   -0.27559E-08  9436   0.191E-03
  17 F= -.38363315E+02 E0= -.38362905E+02  d E =-.517451E-02
 curvature:  -1.73 expect dE=-0.106E-01 dE for cont linesearch -0.112E-10
 trial: gam= 0.16047 g(F)=  0.528E-02 g(S)=  0.862E-03 ort = 0.601E-06 (trialstep = 0.212E+00)
 search vector abs. value=  0.758E-02
 bond charge predicted
       N       E                     dE             d eps       ncg     rms          rms(c)
DAV:   1    -0.383647384357E+02   -0.14232E-02   -0.61898E-02 10212   0.167E+00    0.172E-01
DAV:   2    -0.383645458168E+02    0.19262E-03   -0.45569E-03 10984   0.836E-01    0.827E-02
DAV:   3    -0.383644813278E+02    0.64489E-04   -0.42500E-04 13540   0.210E-01    0.412E-02
DAV:   4    -0.383644500891E+02    0.31239E-04   -0.66366E-05 12492   0.111E-01    0.111E-02
DAV:   5    -0.383644506349E+02   -0.54577E-06   -0.27217E-05 10644   0.451E-02    0.400E-03
DAV:   6    -0.383644507241E+02   -0.89254E-07   -0.31695E-06 12660   0.165E-02    0.228E-03
DAV:   7    -0.383644506767E+02    0.47452E-07   -0.38692E-07 12596   0.874E-03    0.117E-03
DAV:   8    -0.383644506742E+02    0.24252E-08   -0.15890E-07 13524   0.307E-03    0.541E-04
DAV:   9    -0.383644506685E+02    0.57203E-08   -0.28199E-08  8696   0.225E-03
  18 F= -.38364451E+02 E0= -.38364049E+02  d E =-.113544E-02
 trial-energy change:   -0.001135  1 .order   -0.001135   -0.001304   -0.000966
 step:   0.8178(harm=  0.8178)  dis= 0.00704  next Energy=   -38.365829 (dE=-0.251E-02)
 bond charge predicted
       N       E                     dE             d eps       ncg     rms          rms(c)
DAV:   1    -0.383681941442E+02   -0.37435E-02   -0.50404E-01 10212   0.474E+00    0.493E-01
DAV:   2    -0.383666075750E+02    0.15866E-02   -0.37025E-02 11000   0.237E+00    0.236E-01
DAV:   3    -0.383660668977E+02    0.54068E-03   -0.34355E-03 13448   0.602E-01    0.118E-01
DAV:   4    -0.383658086685E+02    0.25823E-03   -0.55758E-04 12404   0.321E-01    0.314E-02
DAV:   5    -0.383658114306E+02   -0.27622E-05   -0.22105E-04 10652   0.131E-01    0.115E-02
DAV:   6    -0.383658122391E+02   -0.80844E-06   -0.26628E-05 12684   0.472E-02    0.659E-03
DAV:   7    -0.383658119139E+02    0.32520E-06   -0.33330E-06 12588   0.248E-02    0.334E-03
DAV:   8    -0.383658119814E+02   -0.67532E-07   -0.12230E-06 13544   0.821E-03    0.152E-03
DAV:   9    -0.383658119561E+02    0.25366E-07   -0.27593E-07 12520   0.578E-03    0.637E-04
DAV:  10    -0.383658119497E+02    0.64038E-08   -0.74981E-08 10000   0.266E-03
  19 F= -.38365812E+02 E0= -.38365433E+02  d E =-.249672E-02
 curvature:  -0.50 expect dE=-0.172E-01 dE for cont linesearch -0.444E-06
 trial: gam= 5.56997 g(F)=  0.306E-01 g(S)=  0.355E-02 ort =-0.817E-04 (trialstep = 0.941E-02)
 search vector abs. value=  0.269E+00
 bond charge predicted
       N       E                     dE             d eps       ncg     rms          rms(c)
DAV:   1    -0.383661400628E+02   -0.32811E-03   -0.43887E-03 10160   0.409E-01    0.427E-02
DAV:   2    -0.383661244850E+02    0.15578E-04   -0.24024E-04 11008   0.182E-01    0.211E-02
DAV:   3    -0.383661194225E+02    0.50625E-05   -0.24173E-05 13412   0.533E-02    0.104E-02
DAV:   4    -0.383661177508E+02    0.16717E-05   -0.56100E-06 11968   0.270E-02    0.298E-03
DAV:   5    -0.383661178638E+02   -0.11301E-06   -0.18084E-06 10612   0.114E-02    0.124E-03
DAV:   6    -0.383661178726E+02   -0.87252E-08   -0.25936E-07 14768   0.465E-03    0.648E-04
DAV:   7    -0.383661178729E+02   -0.29831E-09   -0.56354E-08  9916   0.256E-03
  20 F= -.38366118E+02 E0= -.38365738E+02  d E =-.305923E-03
 ZBRENT: can't locate minimum, use default step
 trial-energy change:   -0.000306  1 .order   -0.000307   -0.000317   -0.000298
 step:   0.0377(harm=  0.1520)  dis= 0.00194  next Energy=   -38.368373 (dE=-0.256E-02)
 bond charge predicted
       N       E                     dE             d eps       ncg     rms          rms(c)
DAV:   1    -0.383671249081E+02   -0.10070E-02   -0.39492E-02 10152   0.123E+00    0.128E-01
DAV:   2    -0.383669864264E+02    0.13848E-03   -0.21655E-03 11016   0.547E-01    0.634E-02
DAV:   3    -0.383669389872E+02    0.47439E-04   -0.21693E-04 13388   0.160E-01    0.313E-02
DAV:   4    -0.383669230479E+02    0.15939E-04   -0.51210E-05 12048   0.824E-02    0.898E-03
DAV:   5    -0.383669235373E+02   -0.48942E-06   -0.16285E-05 10612   0.349E-02    0.375E-03
DAV:   6    -0.383669235591E+02   -0.21792E-07   -0.24800E-06 14740   0.144E-02    0.199E-03
DAV:   7    -0.383669235488E+02    0.10263E-07   -0.54151E-07 11640   0.797E-03    0.982E-04
DAV:   8    -0.383669235487E+02    0.16280E-09   -0.13948E-07 13512   0.347E-03    0.617E-04
DAV:   9    -0.383669235467E+02    0.20023E-08   -0.35080E-08  9116   0.203E-03
  21 F= -.38366924E+02 E0= -.38366538E+02  d E =-.111160E-02
 curvature:  -0.22 expect dE=-0.424E-02 dE for cont linesearch -0.514E-03
 ZBRENT: increasing intervall
 opt :   0.0941  next Energy=   -38.367992 (dE=-0.218E-02)
 bond charge predicted
       N       E                     dE             d eps       ncg     rms          rms(c)
DAV:   1    -0.383687998188E+02   -0.18763E-02   -0.15796E-01 10148   0.245E+00    0.257E-01
DAV:   2    -0.383682460321E+02    0.55379E-03   -0.86543E-03 11016   0.109E+00    0.127E-01
DAV:   3    -0.383680535927E+02    0.19244E-03   -0.86595E-04 13388   0.321E-01    0.627E-02
DAV:   4    -0.383679887907E+02    0.64802E-04   -0.20690E-04 12048   0.166E-01    0.179E-02
DAV:   5    -0.383679902369E+02   -0.14462E-05   -0.65081E-05 10616   0.703E-02    0.752E-03
DAV:   6    -0.383679902652E+02   -0.28325E-07   -0.99896E-06 14772   0.288E-02    0.397E-03
DAV:   7    -0.383679902128E+02    0.52427E-07   -0.21664E-06 11680   0.160E-02    0.196E-03
DAV:   8    -0.383679902273E+02   -0.14528E-07   -0.55238E-07 14536   0.704E-03    0.124E-03
DAV:   9    -0.383679902216E+02    0.56989E-08   -0.14662E-07 12688   0.406E-03    0.458E-04
DAV:  10    -0.383679902194E+02    0.22746E-08   -0.32489E-08  9044   0.165E-03
  22 F= -.38367990E+02 E0= -.38367594E+02  d E =-.217827E-02
 curvature:  -0.45 expect dE=-0.284E-02 dE for cont linesearch -0.265E-03
 ZBRENT: increasing intervall
 opt :   0.2071  next Energy=   -38.367978 (dE=-0.217E-02)
 bond charge predicted
       N       E                     dE             d eps       ncg     rms          rms(c)
DAV:   1    -0.383712569949E+02   -0.32668E-02   -0.63179E-01 10144   0.489E+00    0.514E-01
DAV:   2    -0.383690201637E+02    0.22368E-02   -0.34574E-02 11016   0.218E+00    0.255E-01
DAV:   3    -0.383682425990E+02    0.77756E-03   -0.34622E-03 13364   0.646E-01    0.126E-01
DAV:   4    -0.383679806551E+02    0.26194E-03   -0.84300E-04 12056   0.334E-01    0.360E-02
DAV:   5    -0.383679851454E+02   -0.44903E-05   -0.26086E-04 10612   0.142E-01    0.151E-02
DAV:   6    -0.383679851825E+02   -0.37164E-07   -0.40850E-05 14904   0.576E-02    0.803E-03
DAV:   7    -0.383679849323E+02    0.25020E-06   -0.87380E-06 11704   0.322E-02    0.394E-03
DAV:   8    -0.383679850239E+02   -0.91536E-07   -0.22160E-06 14508   0.143E-02    0.250E-03
DAV:   9    -0.383679850051E+02    0.18815E-07   -0.58761E-07 12764   0.836E-03    0.918E-04
DAV:  10    -0.383679850078E+02   -0.27012E-08   -0.13629E-07 11548   0.334E-03    0.442E-04
DAV:  11    -0.383679850046E+02    0.31596E-08   -0.31038E-08  9740   0.206E-03
  23 F= -.38367985E+02 E0= -.38367565E+02  d E =-.217305E-02
 curvature:   0.02 expect dE= 0.186E-03 dE for cont linesearch  0.121E-04
 ZBRENT: bracketing found
 ZBRENT: interpolating
 opt :   0.1506  next Energy=   -38.368345 (dE=-0.253E-02)
 bond charge predicted
       N       E                     dE             d eps       ncg     rms          rms(c)
DAV:   1    -0.383691530505E+02   -0.11680E-02   -0.15865E-01 10148   0.247E+00    0.258E-01
DAV:   2    -0.383686054410E+02    0.54761E-03   -0.88030E-03 10992   0.111E+00    0.128E-01
DAV:   3    -0.383684102424E+02    0.19520E-03   -0.88420E-04 13524   0.321E-01    0.628E-02
DAV:   4    -0.383683423665E+02    0.67876E-04   -0.20151E-04 12128   0.161E-01    0.180E-02
DAV:   5    -0.383683427764E+02   -0.40993E-06   -0.65553E-05 10600   0.678E-02    0.747E-03
DAV:   6    -0.383683426182E+02    0.15816E-06   -0.94463E-06 14808   0.275E-02    0.395E-03
DAV:   7    -0.383683425431E+02    0.75139E-07   -0.21358E-06 11752   0.152E-02    0.195E-03
DAV:   8    -0.383683425819E+02   -0.38825E-07   -0.53799E-07 14656   0.672E-03    0.122E-03
DAV:   9    -0.383683425803E+02    0.16571E-08   -0.13854E-07 12676   0.378E-03    0.460E-04
DAV:  10    -0.383683425883E+02   -0.80090E-08   -0.31856E-08  8932   0.160E-03
  24 F= -.38368343E+02 E0= -.38367935E+02  d E =-.253064E-02
 curvature:  -0.60 expect dE=-0.176E-02 dE for cont linesearch -0.546E-09
 trial: gam= 0.05625 g(F)=  0.251E-02 g(S)=  0.420E-03 ort =-0.156E-04 (trialstep = 0.376E-01)
 search vector abs. value=  0.378E-02
 bond charge predicted
       N       E                     dE             d eps       ncg     rms          rms(c)
DAV:   1    -0.383684577568E+02   -0.11518E-03   -0.11500E-03 10876   0.233E-01    0.246E-02
DAV:   2    -0.383684526379E+02    0.51189E-05   -0.92534E-05 11400   0.119E-01    0.102E-02
DAV:   3    -0.383684518376E+02    0.80021E-06   -0.72812E-06 13236   0.304E-02    0.522E-03
DAV:   4    -0.383684514214E+02    0.41628E-06   -0.13883E-06 13184   0.138E-02    0.167E-03
DAV:   5    -0.383684514432E+02   -0.21867E-07   -0.38683E-07 10784   0.538E-03    0.671E-04
DAV:   6    -0.383684514460E+02   -0.27462E-08   -0.64807E-08 11908   0.270E-03
  25 F= -.38368451E+02 E0= -.38368044E+02  d E =-.108858E-03
 ZBRENT: can't locate minimum, use default step
 trial-energy change:   -0.000109  1 .order   -0.000109   -0.000110   -0.000107
 step:   0.1506(harm=  1.4734)  dis= 0.00081  next Energy=   -38.370500 (dE=-0.216E-02)
 bond charge predicted
       N       E                     dE             d eps       ncg     rms          rms(c)
DAV:   1    -0.383688191722E+02   -0.36773E-03   -0.10354E-02 10800   0.699E-01    0.738E-02
DAV:   2    -0.383687743219E+02    0.44850E-04   -0.83541E-04 11404   0.358E-01    0.307E-02
DAV:   3    -0.383687659240E+02    0.83979E-05   -0.66059E-05 13216   0.916E-02    0.157E-02
DAV:   4    -0.383687616167E+02    0.43073E-05   -0.12586E-05 13096   0.415E-02    0.501E-03
DAV:   5    -0.383687615246E+02    0.92094E-07   -0.34812E-06 10800   0.162E-02    0.201E-03
DAV:   6    -0.383687615166E+02    0.79258E-08   -0.59606E-07 14136   0.832E-03    0.884E-04
DAV:   7    -0.383687615105E+02    0.61527E-08   -0.14908E-07 11532   0.529E-03    0.480E-04
DAV:   8    -0.383687615040E+02    0.65374E-08   -0.30065E-08  8608   0.176E-03
  26 F= -.38368762E+02 E0= -.38368353E+02  d E =-.418916E-03
 curvature:  -0.14 expect dE=-0.357E-03 dE for cont linesearch -0.269E-03
 ZBRENT: increasing intervall
 opt :   0.3764  next Energy=   -38.369318 (dE=-0.975E-03)
 bond charge predicted
       N       E                     dE             d eps       ncg     rms          rms(c)
DAV:   1    -0.383695477515E+02   -0.78624E-03   -0.41381E-02 10704   0.140E+00    0.148E-01
DAV:   2    -0.383693708234E+02    0.17693E-03   -0.33664E-03 11404   0.718E-01    0.613E-02
DAV:   3    -0.383693363725E+02    0.34451E-04   -0.26576E-04 13112   0.183E-01    0.314E-02
DAV:   4    -0.383693185392E+02    0.17833E-04   -0.50607E-05 13112   0.834E-02    0.100E-02
DAV:   5    -0.383693178916E+02    0.64762E-06   -0.13936E-05 10796   0.326E-02    0.402E-03
DAV:   6    -0.383693178249E+02    0.66686E-07   -0.24195E-06 14168   0.169E-02    0.177E-03
DAV:   7    -0.383693178164E+02    0.85274E-08   -0.60103E-07 11684   0.107E-02    0.964E-04
DAV:   8    -0.383693178084E+02    0.79881E-08   -0.13415E-07 12056   0.352E-03    0.551E-04
DAV:   9    -0.383693177989E+02    0.95615E-08   -0.25193E-08  8004   0.190E-03
  27 F= -.38369318E+02 E0= -.38368909E+02  d E =-.975211E-03
 curvature:  -0.30 expect dE=-0.644E-03 dE for cont linesearch -0.400E-03
 ZBRENT: increasing intervall
 opt :   0.8281  next Energy=   -38.370154 (dE=-0.181E-02)
 bond charge predicted
       N       E                     dE             d eps       ncg     rms          rms(c)
DAV:   1    -0.383710790947E+02   -0.17613E-02   -0.16548E-01 10708   0.279E+00    0.295E-01
DAV:   2    -0.383703700240E+02    0.70907E-03   -0.13482E-02 11404   0.144E+00    0.123E-01
DAV:   3    -0.383702293360E+02    0.14069E-03   -0.10643E-03 13160   0.368E-01    0.628E-02
DAV:   4    -0.383701568313E+02    0.72505E-04   -0.20351E-04 13096   0.167E-01    0.200E-02
DAV:   5    -0.383701536990E+02    0.31323E-05   -0.56051E-05 10784   0.655E-02    0.807E-03
DAV:   6    -0.383701533589E+02    0.34012E-06   -0.97348E-06 14200   0.339E-02    0.355E-03
DAV:   7    -0.383701533607E+02   -0.17776E-08   -0.24117E-06 11740   0.214E-02    0.193E-03
DAV:   8    -0.383701533624E+02   -0.17171E-08   -0.53883E-07 14016   0.704E-03    0.111E-03
DAV:   9    -0.383701533447E+02    0.17651E-07   -0.11064E-07 12332   0.373E-03    0.512E-04
DAV:  10    -0.383701533292E+02    0.15516E-07   -0.27363E-08  8928   0.212E-03    0.224E-04
DAV:  11    -0.383701533266E+02    0.26093E-08   -0.71690E-09  5696   0.736E-04
  28 F= -.38370153E+02 E0= -.38369744E+02  d E =-.181074E-02
 curvature:  -0.62 expect dE=-0.172E-02 dE for cont linesearch -0.344E-03
 ZBRENT: increasing intervall
 opt :   1.7315  next Energy=   -38.370731 (dE=-0.239E-02)
 bond charge predicted
       N       E                     dE             d eps       ncg     rms          rms(c)
DAV:   1    -0.383744682817E+02   -0.43150E-02   -0.66169E-01 10728   0.557E+00    0.592E-01
DAV:   2    -0.383715993420E+02    0.28689E-02   -0.54100E-02 11420   0.288E+00    0.246E-01
DAV:   3    -0.383710285641E+02    0.57078E-03   -0.42756E-03 13256   0.742E-01    0.126E-01
DAV:   4    -0.383707357074E+02    0.29286E-03   -0.82532E-04 13216   0.336E-01    0.401E-02
DAV:   5    -0.383707219082E+02    0.13799E-04   -0.22616E-04 10776   0.132E-01    0.163E-02
DAV:   6    -0.383707203786E+02    0.15296E-05   -0.40021E-05 14436   0.679E-02    0.715E-03
DAV:   7    -0.383707204431E+02   -0.64476E-07   -0.97433E-06 11840   0.429E-02    0.389E-03
DAV:   8    -0.383707205157E+02   -0.72562E-07   -0.21563E-06 14052   0.140E-02    0.224E-03
DAV:   9    -0.383707204907E+02    0.24986E-07   -0.45568E-07 12832   0.746E-03    0.102E-03
DAV:  10    -0.383707204720E+02    0.18669E-07   -0.11031E-07 10852   0.424E-03    0.460E-04
DAV:  11    -0.383707204671E+02    0.48854E-08   -0.33480E-08  9892   0.139E-03
  29 F= -.38370720E+02 E0= -.38370308E+02  d E =-.237788E-02
 curvature:  -1.04 expect dE=-0.930E-02 dE for cont linesearch -0.946E-05
 trial: gam= 3.12341 g(F)=  0.864E-02 g(S)=  0.290E-03 ort =-0.185E-03 (trialstep = 0.319E-01)
 search vector abs. value=  0.446E-01
 bond charge predicted
       N       E                     dE             d eps       ncg     rms          rms(c)
DAV:   1    -0.383709530392E+02   -0.23257E-03   -0.95343E-03 10436   0.677E-01    0.603E-02
DAV:   2    -0.383709493477E+02    0.36915E-05   -0.77267E-04 11604   0.330E-01    0.269E-02
DAV:   3    -0.383709458037E+02    0.35439E-05   -0.64788E-05 12016   0.811E-02    0.144E-02
DAV:   4    -0.383709423967E+02    0.34070E-05   -0.80690E-06 13064   0.442E-02    0.464E-03
DAV:   5    -0.383709423317E+02    0.64952E-07   -0.28335E-06 10964   0.166E-02    0.128E-03
DAV:   6    -0.383709423422E+02   -0.10448E-07   -0.40179E-07 11564   0.840E-03    0.809E-04
DAV:   7    -0.383709423260E+02    0.16234E-07   -0.52505E-08 10120   0.404E-03    0.472E-04
DAV:   8    -0.383709423107E+02    0.15211E-07   -0.13454E-08  5880   0.161E-03    0.185E-04
DAV:   9    -0.383709423038E+02    0.69035E-08   -0.85297E-09  5444   0.780E-04
  30 F= -.38370942E+02 E0= -.38370536E+02  d E =-.221837E-03
 trial-energy change:   -0.000222  1 .order   -0.000222   -0.000266   -0.000177
 step:   0.0954(harm=  0.0954)  dis= 0.00176  next Energy=   -38.371119 (dE=-0.399E-03)
 bond charge predicted
       N       E                     dE             d eps       ncg     rms          rms(c)
DAV:   1    -0.383711640580E+02   -0.22175E-03   -0.37957E-02 10436   0.135E+00    0.120E-01
DAV:   2    -0.383711500834E+02    0.13975E-04   -0.30751E-03 11624   0.657E-01    0.537E-02
DAV:   3    -0.383711346584E+02    0.15425E-04   -0.25784E-04 12004   0.162E-01    0.288E-02
DAV:   4    -0.383711205370E+02    0.14121E-04   -0.32166E-05 13092   0.882E-02    0.918E-03
DAV:   5    -0.383711200574E+02    0.47964E-06   -0.11290E-05 10996   0.333E-02    0.255E-03
DAV:   6    -0.383711201127E+02   -0.55356E-07   -0.15964E-06 11508   0.168E-02    0.162E-03
DAV:   7    -0.383711200773E+02    0.35477E-07   -0.21401E-07 11988   0.807E-03    0.939E-04
DAV:   8    -0.383711200485E+02    0.28730E-07   -0.68057E-08 11212   0.316E-03    0.404E-04
DAV:   9    -0.383711200364E+02    0.12117E-07   -0.21053E-08  7464   0.134E-03    0.185E-04
DAV:  10    -0.383711200329E+02    0.34897E-08   -0.81415E-09  5796   0.974E-04
  31 F= -.38371120E+02 E0= -.38370728E+02  d E =-.399566E-03
 curvature:  -0.25 expect dE=-0.550E-03 dE for cont linesearch -0.474E-08
 trial: gam= 0.16537 g(F)=  0.124E-02 g(S)=  0.911E-03 ort =-0.288E-04 (trialstep = 0.446E-01)
 search vector abs. value=  0.337E-02
 bond charge predicted
       N       E                     dE             d eps       ncg     rms          rms(c)
DAV:   1    -0.383712181527E+02   -0.98116E-04   -0.12756E-03 10108   0.236E-01    0.220E-02
DAV:   2    -0.383712162308E+02    0.19219E-05   -0.81862E-05 11028   0.107E-01    0.108E-02
DAV:   3    -0.383712151617E+02    0.10691E-05   -0.71586E-06 13444   0.278E-02    0.549E-03
DAV:   4    -0.383712145524E+02    0.60925E-06   -0.13648E-06 13684   0.128E-02    0.150E-03
DAV:   5    -0.383712145010E+02    0.51489E-07   -0.37265E-07 10716   0.577E-03    0.653E-04
DAV:   6    -0.383712144988E+02    0.21582E-08   -0.79982E-08 12592   0.290E-03
  32 F= -.38371214E+02 E0= -.38370822E+02  d E =-.944659E-04
 ZBRENT: can't locate minimum, use default step
 trial-energy change:   -0.000094  1 .order   -0.000094   -0.000096   -0.000093
 step:   0.1783(harm=  1.4995)  dis= 0.00073  next Energy=   -38.372733 (dE=-0.161E-02)
 bond charge predicted
       N       E                     dE             d eps       ncg     rms          rms(c)
DAV:   1    -0.383715130018E+02   -0.29850E-03   -0.11485E-02 10100   0.708E-01    0.660E-02
DAV:   2    -0.383714953109E+02    0.17691E-04   -0.73588E-04 11024   0.322E-01    0.325E-02
DAV:   3    -0.383714870481E+02    0.82628E-05   -0.64580E-05 13440   0.834E-02    0.165E-02
DAV:   4    -0.383714822636E+02    0.47845E-05   -0.12234E-05 13688   0.382E-02    0.448E-03
DAV:   5    -0.383714820500E+02    0.21358E-06   -0.33300E-06 10724   0.172E-02    0.195E-03
DAV:   6    -0.383714820435E+02    0.64820E-08   -0.73141E-07 14176   0.875E-03    0.109E-03
DAV:   7    -0.383714820484E+02   -0.49313E-08   -0.13220E-07 12692   0.565E-03    0.549E-04
DAV:   8    -0.383714820585E+02   -0.10045E-07   -0.48328E-08 11648   0.156E-03    0.313E-04
DAV:   9    -0.383714820617E+02   -0.32205E-08   -0.61216E-09  5508   0.835E-04
  33 F= -.38371482E+02 E0= -.38371090E+02  d E =-.362029E-03
 curvature:  -0.21 expect dE=-0.346E-03 dE for cont linesearch -0.224E-03
 ZBRENT: increasing intervall
 opt :   0.4458  next Energy=   -38.371948 (dE=-0.828E-03)
 bond charge predicted
       N       E                     dE             d eps       ncg     rms          rms(c)
DAV:   1    -0.383720670455E+02   -0.58499E-03   -0.45939E-02 10096   0.142E+00    0.132E-01
DAV:   2    -0.383719965907E+02    0.70455E-04   -0.29469E-03 11016   0.644E-01    0.649E-02
DAV:   3    -0.383719650288E+02    0.31562E-04   -0.25826E-04 13420   0.166E-01    0.329E-02
DAV:   4    -0.383719465602E+02    0.18469E-04   -0.48910E-05 13684   0.762E-02    0.895E-03
DAV:   5    -0.383719459494E+02    0.61081E-06   -0.13313E-05 10748   0.344E-02    0.391E-03
DAV:   6    -0.383719459326E+02    0.16842E-07   -0.29471E-06 14180   0.174E-02    0.219E-03
DAV:   7    -0.383719459298E+02    0.27544E-08   -0.53035E-07 12736   0.113E-02    0.110E-03
DAV:   8    -0.383719459549E+02   -0.25041E-07   -0.19913E-07 14304   0.310E-03    0.646E-04
DAV:   9    -0.383719459597E+02   -0.48021E-08   -0.29585E-08  9748   0.154E-03
  34 F= -.38371946E+02 E0= -.38371554E+02  d E =-.825927E-03
 curvature:  -0.43 expect dE=-0.498E-03 dE for cont linesearch -0.310E-03
 ZBRENT: increasing intervall
 opt :   0.9807  next Energy=   -38.372591 (dE=-0.147E-02)
 bond charge predicted
       N       E                     dE             d eps       ncg     rms          rms(c)
DAV:   1    -0.383730664223E+02   -0.11205E-02   -0.18386E-01 10100   0.284E+00    0.263E-01
DAV:   2    -0.383727874313E+02    0.27899E-03   -0.11801E-02 10996   0.129E+00    0.130E-01
DAV:   3    -0.383726647498E+02    0.12268E-03   -0.10355E-03 13448   0.331E-01    0.656E-02
DAV:   4    -0.383725921913E+02    0.72558E-04   -0.19365E-04 13628   0.152E-01    0.179E-02
DAV:   5    -0.383725902185E+02    0.19728E-05   -0.53100E-05 10764   0.687E-02    0.780E-03
DAV:   6    -0.383725901754E+02    0.43059E-07   -0.11790E-05 14124   0.351E-02    0.439E-03
DAV:   7    -0.383725901219E+02    0.53569E-07   -0.21174E-06 12736   0.226E-02    0.221E-03
DAV:   8    -0.383725901929E+02   -0.71012E-07   -0.80235E-07 14340   0.619E-03    0.129E-03
DAV:   9    -0.383725901965E+02   -0.36539E-08   -0.12732E-07 13392   0.304E-03    0.540E-04
DAV:  10    -0.383725902208E+02   -0.24294E-07   -0.42756E-08  9444   0.173E-03    0.255E-04
DAV:  11    -0.383725902215E+02   -0.72851E-09   -0.46550E-09  5592   0.727E-04
  35 F= -.38372590E+02 E0= -.38372199E+02  d E =-.147019E-02
 curvature:  -0.89 expect dE=-0.736E-03 dE for cont linesearch -0.195E-03
 ZBRENT: increasing intervall
 opt :   2.0505  next Energy=   -38.372757 (dE=-0.164E-02)
 bond charge predicted
       N       E                     dE             d eps       ncg     rms          rms(c)
DAV:   1    -0.383746234054E+02   -0.20332E-02   -0.73624E-01 10096   0.570E+00    0.526E-01
DAV:   2    -0.383735390683E+02    0.10843E-02   -0.47339E-02 10980   0.258E+00    0.258E-01
DAV:   3    -0.383730608885E+02    0.47818E-03   -0.41629E-03 13452   0.657E-01    0.131E-01
DAV:   4    -0.383727729629E+02    0.28793E-03   -0.76291E-04 13596   0.303E-01    0.359E-02
DAV:   5    -0.383727657021E+02    0.72608E-05   -0.21022E-04 10804   0.138E-01    0.155E-02
DAV:   6    -0.383727656286E+02    0.73541E-07   -0.47531E-05 14020   0.707E-02    0.881E-03
DAV:   7    -0.383727653196E+02    0.30894E-06   -0.84658E-06 12716   0.452E-02    0.443E-03
DAV:   8    -0.383727655442E+02   -0.22453E-06   -0.32713E-06 14372   0.125E-02    0.260E-03
DAV:   9    -0.383727655266E+02    0.17593E-07   -0.52235E-07 13648   0.616E-03    0.109E-03
DAV:  10    -0.383727655894E+02   -0.62855E-07   -0.17785E-07 11112   0.336E-03    0.527E-04
DAV:  11    -0.383727655902E+02   -0.74851E-09   -0.17229E-08  7200   0.135E-03
  36 F= -.38372766E+02 E0= -.38372375E+02  d E =-.164556E-02
 curvature:  -0.76 expect dE=-0.215E-02 dE for cont linesearch -0.627E-04
 ZBRENT: bracketing found
 ZBRENT: interpolating
 opt :   1.6436  next Energy=   -38.372873 (dE=-0.175E-02)
 bond charge predicted
       N       E                     dE             d eps       ncg     rms          rms(c)
DAV:   1    -0.383731513861E+02   -0.38580E-03   -0.10611E-01 10088   0.214E+00    0.200E-01
DAV:   2    -0.383729832506E+02    0.16814E-03   -0.67413E-03 10960   0.968E-01    0.980E-02
DAV:   3    -0.383729149480E+02    0.68303E-04   -0.58991E-04 13448   0.252E-01    0.497E-02
DAV:   4    -0.383728752922E+02    0.39656E-04   -0.11341E-04 13700   0.116E-01    0.136E-02
DAV:   5    -0.383728747678E+02    0.52442E-06   -0.30702E-05 10864   0.533E-02    0.598E-03
DAV:   6    -0.383728747691E+02   -0.13233E-08   -0.68355E-06 14116   0.264E-02    0.334E-03
DAV:   7    -0.383728746819E+02    0.87218E-07   -0.12077E-06 12652   0.172E-02    0.166E-03
DAV:   8    -0.383728746806E+02    0.12674E-08   -0.44813E-07 14288   0.467E-03    0.974E-04
DAV:   9    -0.383728746620E+02    0.18660E-07   -0.74998E-08 12876   0.234E-03    0.398E-04
DAV:  10    -0.383728746526E+02    0.93632E-08   -0.21972E-08  8524   0.129E-03
  37 F= -.38372875E+02 E0= -.38372484E+02  d E =-.175462E-02
 curvature:  -1.30 expect dE=-0.216E-02 dE for cont linesearch -0.113E-07
 trial: gam= 0.87918 g(F)=  0.133E-02 g(S)=  0.332E-03 ort =-0.541E-05 (trialstep = 0.288E+00)
 search vector abs. value=  0.425E-02
 bond charge predicted
       N       E                     dE             d eps       ncg     rms          rms(c)
DAV:   1    -0.383731047214E+02   -0.23006E-03   -0.68130E-02  9940   0.157E+00    0.114E-01
DAV:   2    -0.383731794095E+02   -0.74688E-04   -0.29165E-03 11792   0.559E-01    0.633E-02
DAV:   3    -0.383731418857E+02    0.37524E-04   -0.26993E-04 12488   0.153E-01    0.343E-02
DAV:   4    -0.383731241561E+02    0.17730E-04   -0.44894E-05 13084   0.775E-02    0.102E-02
DAV:   5    -0.383731239470E+02    0.20910E-06   -0.14610E-05 10576   0.304E-02    0.380E-03
DAV:   6    -0.383731240002E+02   -0.53181E-07   -0.24679E-06 13404   0.147E-02    0.225E-03
DAV:   7    -0.383731239955E+02    0.46280E-08   -0.36691E-07 13020   0.819E-03    0.123E-03
DAV:   8    -0.383731240182E+02   -0.22658E-07   -0.21358E-07 14516   0.374E-03    0.685E-04
DAV:   9    -0.383731240198E+02   -0.15930E-08   -0.27602E-08  8708   0.204E-03
  38 F= -.38373124E+02 E0= -.38372716E+02  d E =-.249367E-03
 trial-energy change:   -0.000249  1 .order   -0.000247   -0.000478   -0.000017
 step:   0.2989(harm=  0.2992)  dis= 0.00161  next Energy=   -38.373124 (dE=-0.250E-03)
 bond charge predicted
       N       E                     dE             d eps       ncg     rms          rms(c)
DAV:   1    -0.383731243611E+02   -0.34285E-06   -0.90819E-05  9960   0.574E-02    0.415E-03
DAV:   2    -0.383731244625E+02   -0.10148E-06   -0.38537E-06 11664   0.203E-02    0.231E-03
DAV:   3    -0.383731243764E+02    0.86093E-07   -0.36009E-07 12528   0.565E-03    0.125E-03
DAV:   4    -0.383731243405E+02    0.35984E-07   -0.60014E-08 11352   0.295E-03    0.344E-04
DAV:   5    -0.383731243359E+02    0.45352E-08   -0.20041E-08  5548   0.126E-03
  39 F= -.38373124E+02 E0= -.38372716E+02  d E =-.249683E-03
 curvature:  -0.38 expect dE=-0.186E-02 dE for cont linesearch -0.707E-09
 trial: gam= 2.90936 g(F)=  0.353E-02 g(S)=  0.131E-02 ort = 0.280E-05 (trialstep = 0.302E-01)
 search vector abs. value=  0.409E-01
 bond charge predicted
       N       E                     dE             d eps       ncg     rms          rms(c)
DAV:   1    -0.383732699014E+02   -0.14556E-03   -0.69928E-03  9984   0.473E-01    0.318E-02
DAV:   2    -0.383732749165E+02   -0.50150E-05   -0.19584E-04 11672   0.116E-01    0.185E-02
DAV:   3    -0.383732703092E+02    0.46072E-05   -0.16850E-05 14712   0.348E-02    0.856E-03
DAV:   4    -0.383732691536E+02    0.11556E-05   -0.31099E-06 12212   0.161E-02    0.240E-03
DAV:   5    -0.383732691781E+02   -0.24468E-07   -0.10870E-06 10680   0.669E-03    0.111E-03
DAV:   6    -0.383732691757E+02    0.23961E-08   -0.93702E-08 12364   0.277E-03
  40 F= -.38373269E+02 E0= -.38372860E+02  d E =-.144840E-03
 ZBRENT: can't locate minimum, use default step
 trial-energy change:   -0.000145  1 .order   -0.000145   -0.000147   -0.000143
 step:   0.1209(harm=  1.0843)  dis= 0.00163  next Energy=   -38.375754 (dE=-0.263E-02)
 bond charge predicted
       N       E                     dE             d eps       ncg     rms          rms(c)
DAV:   1    -0.383736724339E+02   -0.40326E-03   -0.62934E-02  9984   0.142E+00    0.954E-02
DAV:   2    -0.383737172704E+02   -0.44836E-04   -0.17676E-03 11660   0.350E-01    0.556E-02
DAV:   3    -0.383736761329E+02    0.41138E-04   -0.15231E-04 14724   0.106E-01    0.258E-02
DAV:   4    -0.383736656146E+02    0.10518E-04   -0.28059E-05 12208   0.486E-02    0.720E-03
DAV:   5    -0.383736658331E+02   -0.21854E-06   -0.97723E-06 10692   0.201E-02    0.330E-03
DAV:   6    -0.383736658000E+02    0.33177E-07   -0.85445E-07 12640   0.843E-03    0.205E-03
DAV:   7    -0.383736658430E+02   -0.43030E-07   -0.34585E-07 10656   0.431E-03    0.115E-03
DAV:   8    -0.383736658297E+02    0.13298E-07   -0.10666E-07 13468   0.355E-03    0.321E-04
DAV:   9    -0.383736658331E+02   -0.34256E-08   -0.35829E-08  9748   0.190E-03
  41 F= -.38373666E+02 E0= -.38373254E+02  d E =-.541497E-03
 curvature:  -0.75 expect dE=-0.287E-02 dE for cont linesearch -0.345E-03
 ZBRENT: increasing intervall
 opt :   0.3024  next Energy=   -38.374380 (dE=-0.126E-02)
 bond charge predicted
       N       E                     dE             d eps       ncg     rms          rms(c)
DAV:   1    -0.383744057128E+02   -0.73988E-03   -0.25172E-01  9988   0.284E+00    0.191E-01
DAV:   2    -0.383745854319E+02   -0.17972E-03   -0.70834E-03 11668   0.701E-01    0.111E-01
DAV:   3    -0.383744217636E+02    0.16367E-03   -0.61529E-04 14764   0.213E-01    0.515E-02
DAV:   4    -0.383743796847E+02    0.42079E-04   -0.11239E-04 12232   0.975E-02    0.145E-02
DAV:   5    -0.383743804165E+02   -0.73188E-06   -0.38595E-05 10684   0.404E-02    0.653E-03
DAV:   6    -0.383743802922E+02    0.12437E-06   -0.37252E-06 12604   0.187E-02    0.413E-03
DAV:   7    -0.383743804398E+02   -0.14762E-06   -0.14493E-06 11416   0.116E-02    0.242E-03
DAV:   8    -0.383743803789E+02    0.60923E-07   -0.39332E-07 15024   0.927E-03    0.888E-04
DAV:   9    -0.383743803939E+02   -0.15025E-07   -0.17301E-07 12540   0.400E-03    0.465E-04
DAV:  10    -0.383743803946E+02   -0.71304E-09   -0.13445E-08  5852   0.138E-03
  42 F= -.38374380E+02 E0= -.38373963E+02  d E =-.125606E-02
 curvature:  -1.56 expect dE=-0.407E-02 dE for cont linesearch -0.480E-03
 ZBRENT: increasing intervall
 opt :   0.6652  next Energy=   -38.375383 (dE=-0.226E-02)
 bond charge predicted
       N       E                     dE             d eps       ncg     rms          rms(c)
DAV:   1    -0.383754754218E+02   -0.10950E-02   -0.10069E+00  9984   0.568E+00    0.382E-01
DAV:   2    -0.383762094668E+02   -0.73405E-03   -0.28501E-02 11660   0.141E+00    0.222E-01
DAV:   3    -0.383755567166E+02    0.65275E-03   -0.24919E-03 14888   0.433E-01    0.103E-01
DAV:   4    -0.383753870886E+02    0.16963E-03   -0.45208E-04 12236   0.196E-01    0.292E-02
DAV:   5    -0.383753895111E+02   -0.24225E-05   -0.15204E-04 10732   0.830E-02    0.129E-02
DAV:   6    -0.383753891887E+02    0.32247E-06   -0.17023E-05 12444   0.464E-02    0.845E-03
DAV:   7    -0.383753897442E+02   -0.55556E-06   -0.63946E-06 13296   0.286E-02    0.518E-03
DAV:   8    -0.383753894731E+02    0.27115E-06   -0.16169E-06 14640   0.187E-02    0.214E-03
DAV:   9    -0.383753895415E+02   -0.68424E-07   -0.84403E-07 12384   0.772E-03    0.102E-03
DAV:  10    -0.383753895431E+02   -0.15762E-08   -0.79025E-08 12056   0.350E-03
  43 F= -.38375390E+02 E0= -.38374960E+02  d E =-.226521E-02
 curvature:  -3.26 expect dE=-0.435E-02 dE for cont linesearch -0.322E-03
 ZBRENT: increasing intervall
 opt :   1.3909  next Energy=   -38.375731 (dE=-0.261E-02)
 bond charge predicted
       N       E                     dE             d eps       ncg     rms          rms(c)
DAV:   1    -0.383759656855E+02   -0.57614E-03   -0.40288E+00  9976   0.114E+01    0.765E-01
DAV:   2    -0.383790455426E+02   -0.30799E-02   -0.11549E-01 11660   0.283E+00    0.445E-01
DAV:   3    -0.383764431845E+02    0.26024E-02   -0.10238E-02 14824   0.901E-01    0.209E-01
DAV:   4    -0.383757558951E+02    0.68729E-03   -0.18661E-03 12236   0.392E-01    0.594E-02
DAV:   5    -0.383757610606E+02   -0.51654E-05   -0.59136E-04 11024   0.180E-01    0.254E-02
DAV:   6    -0.383757615751E+02   -0.51450E-06   -0.86027E-05 11996   0.115E-01    0.173E-02
DAV:   7    -0.383757635272E+02   -0.19521E-05   -0.26164E-05 13924   0.631E-02    0.106E-02
DAV:   8    -0.383757625355E+02    0.99165E-06   -0.67604E-06 14712   0.345E-02    0.446E-03
DAV:   9    -0.383757628656E+02   -0.33006E-06   -0.34422E-06 12356   0.158E-02    0.224E-03
DAV:  10    -0.383757628526E+02    0.12989E-07   -0.34399E-07 12740   0.636E-03    0.101E-03
DAV:  11    -0.383757628750E+02   -0.22414E-07   -0.25854E-07 11392   0.322E-03    0.498E-04
DAV:  12    -0.383757628746E+02    0.42428E-09   -0.20400E-08  7504   0.143E-03
  44 F= -.38375763E+02 E0= -.38375297E+02  d E =-.263854E-02
 curvature:  -3.46 expect dE=-0.118E-01 dE for cont linesearch -0.747E-04
 ZBRENT: bracketing found
 ZBRENT: interpolating
 opt :   1.1597  next Energy=   -38.375871 (dE=-0.275E-02)
 bond charge predicted
       N       E                     dE             d eps       ncg     rms          rms(c)
DAV:   1    -0.383759295035E+02   -0.16663E-03   -0.40876E-01  9964   0.362E+00    0.242E-01
DAV:   2    -0.383762135708E+02   -0.28407E-03   -0.11410E-02 11656   0.883E-01    0.142E-01
DAV:   3    -0.383759437519E+02    0.26982E-03   -0.97053E-04 14692   0.265E-01    0.651E-02
DAV:   4    -0.383758766597E+02    0.67092E-04   -0.18544E-04 12232   0.123E-01    0.183E-02
DAV:   5    -0.383758781822E+02   -0.15225E-05   -0.64801E-05 10684   0.515E-02    0.872E-03
DAV:   6    -0.383758777938E+02    0.38844E-06   -0.51002E-06 12588   0.212E-02    0.534E-03
DAV:   7    -0.383758779743E+02   -0.18048E-06   -0.28547E-06 10772   0.117E-02    0.316E-03
DAV:   8    -0.383758778434E+02    0.13083E-06   -0.67576E-07 14692   0.979E-03    0.975E-04
DAV:   9    -0.383758778717E+02   -0.28299E-07   -0.30831E-07 10936   0.454E-03    0.582E-04
DAV:  10    -0.383758778763E+02   -0.45634E-08   -0.28810E-08  7624   0.203E-03
  45 F= -.38375878E+02 E0= -.38375425E+02  d E =-.275354E-02
 curvature:  -5.03 expect dE=-0.104E-01 dE for cont linesearch -0.323E-07
 trial: gam= 0.51970 g(F)=  0.178E-02 g(S)=  0.300E-03 ort =-0.162E-04 (trialstep = 0.256E+00)
 search vector abs. value=  0.131E-01
 bond charge predicted
       N       E                     dE             d eps       ncg     rms          rms(c)
DAV:   1    -0.383765533886E+02   -0.67552E-03   -0.15443E-01 10044   0.229E+00    0.182E-01
DAV:   2    -0.383765310590E+02    0.22330E-04   -0.54276E-03 12360   0.758E-01    0.100E-01
DAV:   3    -0.383764198692E+02    0.11119E-03   -0.48053E-04 12172   0.237E-01    0.502E-02
DAV:   4    -0.383763776500E+02    0.42219E-04   -0.10193E-04 13048   0.117E-01    0.136E-02
DAV:   5    -0.383763779303E+02   -0.28023E-06   -0.37114E-05 10540   0.471E-02    0.561E-03
DAV:   6    -0.383763780558E+02   -0.12554E-06   -0.44815E-06 12572   0.246E-02    0.358E-03
DAV:   7    -0.383763781441E+02   -0.88262E-07   -0.91902E-07 13708   0.147E-02    0.191E-03
DAV:   8    -0.383763781661E+02   -0.22056E-07   -0.24769E-07 14952   0.636E-03    0.796E-04
DAV:   9    -0.383763781845E+02   -0.18340E-07   -0.76392E-08 10700   0.289E-03    0.379E-04
DAV:  10    -0.383763781910E+02   -0.64806E-08   -0.16477E-08  6464   0.112E-03
  46 F= -.38376378E+02 E0= -.38375921E+02  d E =-.500315E-03
 ZBRENT: can't locate minimum, use default step
 trial-energy change:   -0.000500  1 .order   -0.000504   -0.000530   -0.000477
 step:   1.0245(harm=  2.5907)  dis= 0.00713  next Energy=   -38.378557 (dE=-0.268E-02)
 bond charge predicted
       N       E                     dE             d eps       ncg     rms          rms(c)
DAV:   1    -0.383790376069E+02   -0.26594E-02   -0.13909E+00 10044   0.690E+00    0.545E-01
DAV:   2    -0.383789394516E+02    0.98155E-04   -0.49863E-02 12432   0.229E+00    0.301E-01
DAV:   3    -0.383779445628E+02    0.99489E-03   -0.42903E-03 12168   0.705E-01    0.151E-01
DAV:   4    -0.383775640301E+02    0.38053E-03   -0.90751E-04 13048   0.353E-01    0.410E-02
DAV:   5    -0.383775670353E+02   -0.30052E-05   -0.32952E-04 10540   0.139E-01    0.168E-02
DAV:   6    -0.383775677880E+02   -0.75274E-06   -0.40685E-05 12464   0.757E-02    0.106E-02
DAV:   7    -0.383775683698E+02   -0.58173E-06   -0.89473E-06 13876   0.442E-02    0.581E-03
DAV:   8    -0.383775683908E+02   -0.21012E-07   -0.23156E-06 15248   0.191E-02    0.251E-03
DAV:   9    -0.383775685078E+02   -0.11703E-06   -0.78545E-07 11660   0.907E-03    0.123E-03
DAV:  10    -0.383775685303E+02   -0.22522E-07   -0.19026E-07 13928   0.328E-03    0.397E-04
DAV:  11    -0.383775685311E+02   -0.73396E-09   -0.52107E-08 10256   0.178E-03
  47 F= -.38377569E+02 E0= -.38377094E+02  d E =-.169065E-02
 curvature:  -4.51 expect dE=-0.106E-01 dE for cont linesearch -0.532E-03
 ZBRENT: increasing intervall
 opt :   2.5612  next Energy=   -38.378524 (dE=-0.265E-02)
 bond charge predicted
       N       E                     dE             d eps       ncg     rms          rms(c)
DAV:   1    -0.383836665341E+02   -0.60980E-02   -0.55719E+00 10048   0.139E+01    0.109E+00
DAV:   2    -0.383840010384E+02   -0.33450E-03   -0.20579E-01 12456   0.463E+00    0.601E-01
DAV:   3    -0.383800331656E+02    0.39679E-02   -0.17104E-02 12240   0.138E+00    0.302E-01
DAV:   4    -0.383785022811E+02    0.15309E-02   -0.35469E-03 13024   0.698E-01    0.833E-02
DAV:   5    -0.383785084911E+02   -0.62100E-05   -0.12842E-03 10584   0.272E-01    0.337E-02
DAV:   6    -0.383785106857E+02   -0.21945E-05   -0.16899E-04 12292   0.160E-01    0.211E-02
DAV:   7    -0.383785133703E+02   -0.26846E-05   -0.40496E-05 14332   0.889E-02    0.121E-02
DAV:   8    -0.383785129010E+02    0.46928E-06   -0.10086E-05 15280   0.380E-02    0.543E-03
DAV:   9    -0.383785133536E+02   -0.45261E-06   -0.37800E-06 12188   0.193E-02    0.272E-03
DAV:  10    -0.383785133852E+02   -0.31602E-07   -0.77768E-07 14000   0.669E-03    0.749E-04
DAV:  11    -0.383785134089E+02   -0.23651E-07   -0.22467E-07 10596   0.401E-03    0.609E-04
DAV:  12    -0.383785134172E+02   -0.83414E-08   -0.39937E-08  9296   0.207E-03
  48 F= -.38378513E+02 E0= -.38377983E+02  d E =-.263554E-02
 curvature:  -8.10 expect dE=-0.837E-01 dE for cont linesearch -0.127E-06
 trial: gam= 5.04100 g(F)=  0.101E-01 g(S)=  0.258E-03 ort =-0.143E-04 (trialstep = 0.274E-01)
 search vector abs. value=  0.343E+00
 bond charge predicted
       N       E                     dE             d eps       ncg     rms          rms(c)
DAV:   1    -0.383787851751E+02   -0.27177E-03   -0.46025E-02 10040   0.126E+00    0.974E-02
DAV:   2    -0.383787985744E+02   -0.13399E-04   -0.17049E-03 12468   0.431E-01    0.549E-02
DAV:   3    -0.383787663779E+02    0.32197E-04   -0.15438E-04 11952   0.130E-01    0.277E-02
DAV:   4    -0.383787539556E+02    0.12422E-04   -0.30074E-05 13156   0.640E-02    0.753E-03
DAV:   5    -0.383787540522E+02   -0.96561E-07   -0.10812E-05 10548   0.273E-02    0.314E-03
DAV:   6    -0.383787541040E+02   -0.51811E-07   -0.13212E-06 12436   0.141E-02    0.201E-03
DAV:   7    -0.383787541532E+02   -0.49185E-07   -0.30321E-07 14412   0.805E-03    0.103E-03
DAV:   8    -0.383787541603E+02   -0.71304E-08   -0.82943E-08 12268   0.372E-03
  49 F= -.38378754E+02 E0= -.38378210E+02  d E =-.240743E-03
 trial-energy change:   -0.000241  1 .order   -0.000241   -0.000281   -0.000201
 step:   0.0959(harm=  0.0959)  dis= 0.00397  next Energy=   -38.379005 (dE=-0.492E-03)
 bond charge predicted
       N       E                     dE             d eps       ncg     rms          rms(c)
DAV:   1    -0.383791888119E+02   -0.43466E-03   -0.28793E-01 10040   0.317E+00    0.243E-01
DAV:   2    -0.383792805995E+02   -0.91788E-04   -0.10745E-02 12460   0.108E+00    0.137E-01
DAV:   3    -0.383790822616E+02    0.19834E-03   -0.96684E-04 11988   0.324E-01    0.693E-02
DAV:   4    -0.383790048854E+02    0.77376E-04   -0.18743E-04 13168   0.160E-01    0.190E-02
DAV:   5    -0.383790056274E+02   -0.74194E-06   -0.67304E-05 10552   0.675E-02    0.782E-03
DAV:   6    -0.383790058078E+02   -0.18039E-06   -0.82914E-06 12376   0.355E-02    0.500E-03
DAV:   7    -0.383790059597E+02   -0.15195E-06   -0.19410E-06 14412   0.201E-02    0.260E-03
DAV:   8    -0.383790059613E+02   -0.15407E-08   -0.54191E-07 15092   0.929E-03    0.108E-03
DAV:   9    -0.383790059967E+02   -0.35456E-07   -0.17635E-07 11520   0.402E-03    0.529E-04
DAV:  10    -0.383790060021E+02   -0.54051E-08   -0.30994E-08  8396   0.141E-03
  50 F= -.38379006E+02 E0= -.38378427E+02  d E =-.492585E-03
 curvature:  -1.60 expect dE=-0.319E-02 dE for cont linesearch -0.211E-07
 trial: gam= 0.17178 g(F)=  0.107E-02 g(S)=  0.923E-03 ort = 0.673E-04 (trialstep = 0.411E-01)
 search vector abs. value=  0.121E-01
 bond charge predicted
       N       E                     dE             d eps       ncg     rms          rms(c)
DAV:   1    -0.383790902104E+02   -0.84214E-04   -0.35851E-03 10108   0.350E-01    0.273E-02
DAV:   2    -0.383790908022E+02   -0.59185E-06   -0.13032E-04 11912   0.114E-01    0.154E-02
DAV:   3    -0.383790884161E+02    0.23861E-05   -0.10740E-05 13676   0.387E-02    0.743E-03
DAV:   4    -0.383790876287E+02    0.78736E-06   -0.23452E-06 11704   0.209E-02    0.177E-03
DAV:   5    -0.383790876911E+02   -0.62388E-07   -0.91125E-07 11328   0.949E-03    0.921E-04
DAV:   6    -0.383790876924E+02   -0.12942E-08   -0.10005E-07  9972   0.424E-03    0.579E-04
DAV:   7    -0.383790876883E+02    0.40795E-08   -0.40077E-08  9328   0.216E-03
  51 F= -.38379088E+02 E0= -.38378507E+02  d E =-.816862E-04
 ZBRENT: can't locate minimum, use default step
 trial-energy change:   -0.000082  1 .order   -0.000082   -0.000082   -0.000081
 step:   0.1643(harm=  2.0710)  dis= 0.00118  next Energy=   -38.381082 (dE=-0.208E-02)
 bond charge predicted
       N       E                     dE             d eps       ncg     rms          rms(c)
DAV:   1    -0.383793467559E+02   -0.25906E-03   -0.32268E-02 10100   0.105E+00    0.820E-02
DAV:   2    -0.383793521591E+02   -0.54033E-05   -0.11717E-03 11852   0.340E-01    0.463E-02
DAV:   3    -0.383793294280E+02    0.22731E-04   -0.97934E-05 13756   0.116E-01    0.223E-02
DAV:   4    -0.383793217715E+02    0.76565E-05   -0.21061E-05 11620   0.624E-02    0.533E-03
DAV:   5    -0.383793221696E+02   -0.39807E-06   -0.82487E-06 11312   0.284E-02    0.276E-03
DAV:   6    -0.383793221915E+02   -0.21918E-07   -0.91118E-07 11664   0.127E-02    0.173E-03
DAV:   7    -0.383793221916E+02   -0.15189E-09   -0.35472E-07 12620   0.641E-03    0.104E-03
DAV:   8    -0.383793221797E+02    0.11901E-07   -0.81378E-08 11856   0.396E-03    0.436E-04
DAV:   9    -0.383793221777E+02    0.19895E-08   -0.44150E-08 10348   0.123E-03
  52 F= -.38379322E+02 E0= -.38378736E+02  d E =-.316176E-03
 curvature:  -0.74 expect dE=-0.125E-02 dE for cont linesearch -0.208E-03
 ZBRENT: increasing intervall
 opt :   0.4108  next Energy=   -38.379750 (dE=-0.744E-03)
 bond charge predicted
       N       E                     dE             d eps       ncg     rms          rms(c)
DAV:   1    -0.383798525902E+02   -0.53041E-03   -0.12904E-01 10100   0.210E+00    0.164E-01
DAV:   2    -0.383798739981E+02   -0.21408E-04   -0.46824E-03 11876   0.679E-01    0.925E-02
DAV:   3    -0.383797814071E+02    0.92591E-04   -0.38761E-04 13768   0.232E-01    0.447E-02
DAV:   4    -0.383797502143E+02    0.31193E-04   -0.84249E-05 11688   0.125E-01    0.106E-02
DAV:   5    -0.383797516217E+02   -0.14074E-05   -0.32797E-05 11216   0.569E-02    0.549E-03
DAV:   6    -0.383797517214E+02   -0.99748E-07   -0.36314E-06 11736   0.255E-02    0.343E-03
DAV:   7    -0.383797517584E+02   -0.36986E-07   -0.13797E-06 12616   0.128E-02    0.204E-03
DAV:   8    -0.383797517257E+02    0.32754E-07   -0.33443E-07 14164   0.788E-03    0.827E-04
DAV:   9    -0.383797517270E+02   -0.13329E-08   -0.14019E-07 12076   0.225E-03    0.446E-04
DAV:  10    -0.383797517194E+02    0.76252E-08   -0.13824E-08  6284   0.112E-03
  53 F= -.38379752E+02 E0= -.38379156E+02  d E =-.745717E-03
 curvature:  -1.52 expect dE=-0.204E-02 dE for cont linesearch -0.329E-03
 ZBRENT: increasing intervall
 opt :   0.9038  next Energy=   -38.380439 (dE=-0.143E-02)
 bond charge predicted
       N       E                     dE             d eps       ncg     rms          rms(c)
DAV:   1    -0.383808568247E+02   -0.11051E-02   -0.51597E-01 10100   0.419E+00    0.328E-01
DAV:   2    -0.383809409933E+02   -0.84169E-04   -0.18734E-02 11968   0.135E+00    0.185E-01
DAV:   3    -0.383805614712E+02    0.37952E-03   -0.14922E-03 13708   0.464E-01    0.895E-02
DAV:   4    -0.383804357362E+02    0.12574E-03   -0.34119E-04 11716   0.250E-01    0.213E-02
DAV:   5    -0.383804409176E+02   -0.51814E-05   -0.13080E-04 11284   0.114E-01    0.110E-02
DAV:   6    -0.383804413269E+02   -0.40934E-06   -0.14475E-05 11660   0.513E-02    0.686E-03
DAV:   7    -0.383804415421E+02   -0.21516E-06   -0.53953E-06 12684   0.254E-02    0.406E-03
DAV:   8    -0.383804414431E+02    0.98980E-07   -0.12959E-06 13988   0.157E-02    0.164E-03
DAV:   9    -0.383804414730E+02   -0.29853E-07   -0.55505E-07 13404   0.451E-03    0.905E-04
DAV:  10    -0.383804414560E+02    0.16933E-07   -0.68083E-08 11468   0.229E-03    0.322E-04
DAV:  11    -0.383804414498E+02    0.62660E-08   -0.24525E-08  8328   0.128E-03
  54 F= -.38380441E+02 E0= -.38379824E+02  d E =-.143545E-02
 curvature:  -3.17 expect dE=-0.299E-02 dE for cont linesearch -0.353E-03
 ZBRENT: increasing intervall
 opt :   1.8897  next Energy=   -38.381133 (dE=-0.213E-02)
 bond charge predicted
       N       E                     dE             d eps       ncg     rms          rms(c)
DAV:   1    -0.383828620250E+02   -0.24206E-02   -0.20626E+00 10096   0.835E+00    0.658E-01
DAV:   2    -0.383831722208E+02   -0.31020E-03   -0.74918E-02 12048   0.267E+00    0.370E-01
DAV:   3    -0.383816305877E+02    0.15416E-02   -0.58149E-03 13684   0.929E-01    0.180E-01
DAV:   4    -0.383811261267E+02    0.50446E-03   -0.13957E-03 12048   0.499E-01    0.426E-02
DAV:   5    -0.383811446405E+02   -0.18514E-04   -0.51358E-04 11280   0.229E-01    0.219E-02
DAV:   6    -0.383811463889E+02   -0.17484E-05   -0.58342E-05 11620   0.106E-01    0.136E-02
DAV:   7    -0.383811473548E+02   -0.96596E-06   -0.20680E-05 12764   0.508E-02    0.797E-03
DAV:   8    -0.383811470943E+02    0.26059E-06   -0.48674E-06 13820   0.303E-02    0.321E-03
DAV:   9    -0.383811472690E+02   -0.17474E-06   -0.20895E-06 13256   0.878E-03    0.181E-03
DAV:  10    -0.383811472243E+02    0.44671E-07   -0.26456E-07 14028   0.434E-03    0.629E-04
DAV:  11    -0.383811472205E+02    0.37908E-08   -0.90490E-08 10500   0.234E-03
  55 F= -.38381147E+02 E0= -.38380480E+02  d E =-.214122E-02
 curvature:  -6.22 expect dE=-0.913E-02 dE for cont linesearch -0.321E-04
 trial: gam= 0.66308 g(F)=  0.117E-02 g(S)=  0.303E-03 ort = 0.250E-03 (trialstep = 0.411E+00)
 search vector abs. value=  0.714E-02
 bond charge predicted
       N       E                     dE             d eps       ncg     rms          rms(c)
DAV:   1    -0.383816498507E+02   -0.50263E-03   -0.20259E-01  9932   0.257E+00    0.199E-01
DAV:   2    -0.383817015257E+02   -0.51675E-04   -0.66039E-03 11788   0.797E-01    0.117E-01
DAV:   3    -0.383815327056E+02    0.16882E-03   -0.62950E-04 12932   0.260E-01    0.547E-02
DAV:   4    -0.383814920320E+02    0.40674E-04   -0.14470E-04 10972   0.137E-01    0.143E-02
DAV:   5    -0.383814939046E+02   -0.18726E-05   -0.49245E-05 11188   0.604E-02    0.729E-03
DAV:   6    -0.383814938067E+02    0.97893E-07   -0.57622E-06 11840   0.357E-02    0.450E-03
DAV:   7    -0.383814938755E+02   -0.68808E-07   -0.24498E-06 13208   0.178E-02    0.267E-03
DAV:   8    -0.383814938148E+02    0.60779E-07   -0.54430E-07 14464   0.101E-02    0.118E-03
DAV:   9    -0.383814938335E+02   -0.18720E-07   -0.24546E-07 11456   0.322E-03    0.742E-04
DAV:  10    -0.383814938221E+02    0.11403E-07   -0.33319E-08  8736   0.171E-03    0.276E-04
DAV:  11    -0.383814938224E+02   -0.31059E-09   -0.22791E-08  7956   0.106E-03
  56 F= -.38381494E+02 E0= -.38380830E+02  d E =-.346602E-03
 trial-energy change:   -0.000347  1 .order   -0.000345   -0.000672   -0.000018
 step:   0.4221(harm=  0.4223)  dis= 0.00319  next Energy=   -38.381494 (dE=-0.347E-03)
 bond charge predicted
       N       E                     dE             d eps       ncg     rms          rms(c)
DAV:   1    -0.383814941822E+02   -0.36009E-06   -0.15302E-04  9956   0.706E-02    0.548E-03
DAV:   2    -0.383814942020E+02   -0.19785E-07   -0.50017E-06 11548   0.221E-02    0.323E-03
DAV:   3    -0.383814941122E+02    0.89734E-07   -0.51602E-07 13352   0.721E-03    0.151E-03
DAV:   4    -0.383814940880E+02    0.24245E-07   -0.10520E-07 10880   0.380E-03    0.408E-04
DAV:   5    -0.383814940925E+02   -0.45166E-08   -0.37400E-08  9312   0.166E-03
  57 F= -.38381494E+02 E0= -.38380831E+02  d E =-.346872E-03
 curvature:  -0.92 expect dE=-0.649E-02 dE for cont linesearch -0.404E-10
 trial: gam= 4.93209 g(F)=  0.557E-02 g(S)=  0.147E-02 ort =-0.559E-06 (trialstep = 0.163E-01)
 search vector abs. value=  0.181E+00
 bond charge predicted
       N       E                     dE             d eps       ncg     rms          rms(c)
DAV:   1    -0.383816179114E+02   -0.12382E-03   -0.79347E-03  9908   0.495E-01    0.388E-02
DAV:   2    -0.383816167841E+02    0.11274E-05   -0.21223E-04 13440   0.131E-01    0.231E-02
DAV:   3    -0.383816089133E+02    0.78708E-05   -0.16438E-05 13276   0.415E-02    0.968E-03
DAV:   4    -0.383816076114E+02    0.13018E-05   -0.52467E-06 10848   0.193E-02    0.289E-03
DAV:   5    -0.383816076928E+02   -0.81350E-07   -0.18616E-06 11900   0.103E-02    0.157E-03
DAV:   6    -0.383816076700E+02    0.22753E-07   -0.20459E-07 12756   0.559E-03    0.940E-04
DAV:   7    -0.383816076748E+02   -0.47517E-08   -0.11634E-07 13068   0.371E-03    0.572E-04
DAV:   8    -0.383816076707E+02    0.40977E-08   -0.14584E-08  5704   0.253E-03
  58 F= -.38381608E+02 E0= -.38380941E+02  d E =-.113578E-03
 ZBRENT: can't locate minimum, use default step
 trial-energy change:   -0.000114  1 .order   -0.000114   -0.000115   -0.000112
 step:   0.0653(harm=  0.7585)  dis= 0.00188  next Energy=   -38.384163 (dE=-0.267E-02)
 bond charge predicted
       N       E                     dE             d eps       ncg     rms          rms(c)
DAV:   1    -0.383820255052E+02   -0.41783E-03   -0.71417E-02  9908   0.148E+00    0.116E-01
DAV:   2    -0.383820161888E+02    0.93164E-05   -0.19063E-03 13420   0.391E-01    0.692E-02
DAV:   3    -0.383819448717E+02    0.71317E-04   -0.14803E-04 13332   0.124E-01    0.290E-02
DAV:   4    -0.383819331214E+02    0.11750E-04   -0.47826E-05 10840   0.577E-02    0.874E-03
DAV:   5    -0.383819336708E+02   -0.54948E-06   -0.17025E-05 11996   0.315E-02    0.474E-03
DAV:   6    -0.383819334971E+02    0.17375E-06   -0.19104E-06 12760   0.174E-02    0.284E-03
DAV:   7    -0.383819335435E+02   -0.46368E-07   -0.10793E-06 14208   0.113E-02    0.174E-03
DAV:   8    -0.383819335155E+02    0.27988E-07   -0.17158E-07 13412   0.760E-03    0.856E-04
DAV:   9    -0.383819335148E+02    0.64074E-09   -0.12181E-07 12756   0.226E-03    0.281E-04
DAV:  10    -0.383819335154E+02   -0.58299E-09   -0.14103E-08  6124   0.204E-03
  59 F= -.38381934E+02 E0= -.38381256E+02  d E =-.439423E-03
 curvature:  -1.24 expect dE=-0.882E-02 dE for cont linesearch -0.285E-03
 ZBRENT: increasing intervall
 opt :   0.1632  next Energy=   -38.382519 (dE=-0.103E-02)
 bond charge predicted
       N       E                     dE             d eps       ncg     rms          rms(c)
DAV:   1    -0.383828865658E+02   -0.95305E-03   -0.28571E-01  9912   0.297E+00    0.232E-01
DAV:   2    -0.383828507724E+02    0.35793E-04   -0.76263E-03 13400   0.778E-01    0.139E-01
DAV:   3    -0.383825636596E+02    0.28711E-03   -0.58480E-04 13296   0.252E-01    0.579E-02
DAV:   4    -0.383825169724E+02    0.46687E-04   -0.19361E-04 10836   0.116E-01    0.174E-02
DAV:   5    -0.383825190350E+02   -0.20626E-05   -0.67820E-05 12024   0.627E-02    0.943E-03
DAV:   6    -0.383825183813E+02    0.65373E-06   -0.75228E-06 12828   0.342E-02    0.564E-03
DAV:   7    -0.383825185754E+02   -0.19410E-06   -0.42421E-06 14240   0.222E-02    0.345E-03
DAV:   8    -0.383825184629E+02    0.11254E-06   -0.67991E-07 13488   0.151E-02    0.167E-03
DAV:   9    -0.383825184638E+02   -0.90722E-09   -0.48222E-07 13960   0.441E-03    0.582E-04
DAV:  10    -0.383825184658E+02   -0.20050E-08   -0.61112E-08 10704   0.385E-03
  60 F= -.38382518E+02 E0= -.38381819E+02  d E =-.102437E-02
 curvature:  -2.56 expect dE=-0.187E-01 dE for cont linesearch -0.429E-03
 ZBRENT: increasing intervall
 opt :   0.3590  next Energy=   -38.383416 (dE=-0.192E-02)
 bond charge predicted
       N       E                     dE             d eps       ncg     rms          rms(c)
DAV:   1    -0.383848732798E+02   -0.23548E-02   -0.11432E+00  9912   0.593E+00    0.465E-01
DAV:   2    -0.383847474081E+02    0.12587E-03   -0.30679E-02 13352   0.154E+00    0.277E-01
DAV:   3    -0.383835907871E+02    0.11566E-02   -0.23329E-03 13284   0.519E-01    0.116E-01
DAV:   4    -0.383834063877E+02    0.18440E-03   -0.79657E-04 10816   0.233E-01    0.347E-02
DAV:   5    -0.383834145904E+02   -0.82026E-05   -0.27528E-04 12044   0.125E-01    0.189E-02
DAV:   6    -0.383834119573E+02    0.26331E-05   -0.30107E-05 12988   0.674E-02    0.112E-02
DAV:   7    -0.383834127679E+02   -0.81070E-06   -0.16875E-05 14228   0.432E-02    0.687E-03
DAV:   8    -0.383834123104E+02    0.45759E-06   -0.27117E-06 13452   0.300E-02    0.327E-03
DAV:   9    -0.383834123294E+02   -0.19091E-07   -0.19054E-06 13968   0.856E-03    0.120E-03
DAV:  10    -0.383834123349E+02   -0.54133E-08   -0.23081E-07 12196   0.723E-03    0.523E-04
DAV:  11    -0.383834123380E+02   -0.30936E-08   -0.48584E-08  9988   0.326E-03
  61 F= -.38383412E+02 E0= -.38382662E+02  d E =-.191825E-02
 curvature:  -5.34 expect dE=-0.438E-01 dE for cont linesearch -0.397E-03
 ZBRENT: increasing intervall
 opt :   0.7507  next Energy=   -38.384125 (dE=-0.263E-02)
 bond charge predicted
       N       E                     dE             d eps       ncg     rms          rms(c)
DAV:   1    -0.383897496049E+02   -0.63373E-02   -0.45775E+00  9908   0.119E+01    0.930E-01
DAV:   2    -0.383895091261E+02    0.24048E-03   -0.12572E-01 13352   0.306E+00    0.557E-01
[...]
 bond charge predicted
       N       E                     dE             d eps       ncg     rms          rms(c)
DAV:   1    -0.384002157982E+02   -0.64349E-06   -0.13112E-04  9952   0.664E-02    0.452E-03
DAV:   2    -0.384002159159E+02   -0.11778E-06   -0.44405E-06 11096   0.207E-02    0.252E-03
DAV:   3    -0.384002159037E+02    0.12223E-07   -0.38524E-07 12984   0.623E-03    0.133E-03
DAV:   4    -0.384002158871E+02    0.16598E-07   -0.63243E-08 11384   0.337E-03    0.327E-04
DAV:   5    -0.384002158917E+02   -0.46221E-08   -0.20197E-08  6104   0.165E-03
 230 F= -.38400216E+02 E0= -.38397404E+02  d E =-.127652E-05
 curvature:  -0.85 expect dE=-0.582E-05 dE for cont linesearch -0.507E-06
 ZBRENT: increasing intervall
 opt :   0.2665  next Energy=   -38.400217 (dE=-0.226E-05)
 bond charge predicted
       N       E                     dE             d eps       ncg     rms          rms(c)
DAV:   1    -0.384002166730E+02   -0.78584E-06   -0.52564E-04  9952   0.133E-01    0.893E-03
DAV:   2    -0.384002172276E+02   -0.55461E-06   -0.18230E-05 10968   0.422E-02    0.495E-03
DAV:   3    -0.384002171267E+02    0.10087E-06   -0.15476E-06 13032   0.126E-02    0.263E-03
DAV:   4    -0.384002170465E+02    0.80233E-07   -0.25355E-07 13124   0.668E-03    0.654E-04
DAV:   5    -0.384002170567E+02   -0.10208E-07   -0.82669E-08 10608   0.329E-03    0.254E-04
DAV:   6    -0.384002170559E+02    0.75534E-09   -0.11836E-08  5640   0.153E-03
 231 F= -.38400217E+02 E0= -.38397406E+02  d E =-.244070E-05
 curvature:  -1.63 expect dE=-0.637E-05 dE for cont linesearch -0.450E-06
 ZBRENT: increasing intervall
 opt :   0.5573  next Energy=   -38.400218 (dE=-0.336E-05)
 bond charge predicted
       N       E                     dE             d eps       ncg     rms          rms(c)
DAV:   1    -0.384002179308E+02   -0.87410E-06   -0.21026E-03  9952   0.267E-01    0.179E-02
DAV:   2    -0.384002201776E+02   -0.22468E-05   -0.73008E-05 10976   0.845E-02    0.991E-03
DAV:   3    -0.384002196403E+02    0.53722E-06   -0.61888E-06 13028   0.256E-02    0.526E-03
DAV:   4    -0.384002192865E+02    0.35390E-06   -0.10240E-06 12976   0.135E-02    0.131E-03
DAV:   5    -0.384002193117E+02   -0.25261E-07   -0.33231E-07 10804   0.673E-03    0.507E-04
DAV:   6    -0.384002193111E+02    0.63801E-09   -0.54233E-08  9016   0.305E-03
 232 F= -.38400219E+02 E0= -.38397410E+02  d E =-.469585E-05
 curvature:  -3.32 expect dE=-0.199E-04 dE for cont linesearch -0.255E-08
 trial: gam= 0.65900 g(F)=  0.284E-05 g(S)=  0.315E-05 ort = 0.317E-06 (trialstep = 0.121E+00)
 search vector abs. value=  0.631E-04
 bond charge predicted
       N       E                     dE             d eps       ncg     rms          rms(c)
DAV:   1    -0.384002199244E+02   -0.61271E-06   -0.17614E-04  9920   0.753E-02    0.465E-03
DAV:   2    -0.384002202035E+02   -0.27903E-06   -0.55650E-06 11376   0.192E-02    0.267E-03
DAV:   3    -0.384002201074E+02    0.96016E-07   -0.33486E-07 12476   0.516E-03    0.138E-03
DAV:   4    -0.384002200727E+02    0.34748E-07   -0.61097E-08 10672   0.272E-03    0.374E-04
DAV:   5    -0.384002200666E+02    0.60754E-08   -0.21695E-08  6032   0.123E-03
 233 F= -.38400220E+02 E0= -.38397411E+02  d E =-.755538E-06
 ZBRENT: can't locate minimum, use default step
 trial-energy change:   -0.000001  1 .order   -0.000001   -0.000001   -0.000001
 step:   0.4846(harm=  2.7764)  dis= 0.00043  next Energy=   -38.400228 (dE=-0.861E-05)
 bond charge predicted
       N       E                     dE             d eps       ncg     rms          rms(c)
DAV:   1    -0.384002235696E+02   -0.34969E-05   -0.15813E-03  9912   0.226E-01    0.139E-02
DAV:   2    -0.384002258993E+02   -0.23297E-05   -0.49361E-05 11420   0.575E-02    0.795E-03
DAV:   3    -0.384002251846E+02    0.71470E-06   -0.30272E-06 12468   0.159E-02    0.411E-03
DAV:   4    -0.384002249286E+02    0.25592E-06   -0.57223E-07 11820   0.943E-03    0.111E-03
DAV:   5    -0.384002249149E+02    0.13744E-07   -0.21373E-07 11400   0.403E-03    0.452E-04
DAV:   6    -0.384002249146E+02    0.31559E-09   -0.18786E-08  6196   0.211E-03
 234 F= -.38400225E+02 E0= -.38397417E+02  d E =-.560351E-05
 curvature:  -3.60 expect dE=-0.297E-04 dE for cont linesearch -0.928E-06
 ZBRENT: increasing intervall
 opt :   1.2116  next Energy=   -38.400226 (dE=-0.715E-05)
 bond charge predicted
       N       E                     dE             d eps       ncg     rms          rms(c)
DAV:   1    -0.384002216038E+02    0.33111E-05   -0.63277E-03  9912   0.451E-01    0.278E-02
DAV:   2    -0.384002307944E+02   -0.91906E-05   -0.19781E-04 11388   0.116E-01    0.159E-02
DAV:   3    -0.384002280842E+02    0.27102E-05   -0.12250E-05 12484   0.327E-02    0.825E-03
DAV:   4    -0.384002271030E+02    0.98118E-06   -0.23458E-06 11724   0.197E-02    0.221E-03
DAV:   5    -0.384002270837E+02    0.19288E-07   -0.86092E-07 11480   0.849E-03    0.912E-04
DAV:   6    -0.384002270841E+02   -0.34379E-09   -0.95497E-08 11348   0.469E-03
 235 F= -.38400227E+02 E0= -.38397421E+02  d E =-.777302E-05
 curvature:  -6.02 expect dE=-0.225E-03 dE for cont linesearch -0.731E-07
 trial: gam= 6.13077 g(F)=  0.320E-04 g(S)=  0.530E-05 ort = 0.876E-06 (trialstep = 0.885E-02)
 search vector abs. value=  0.242E-02
 bond charge predicted
       N       E                     dE             d eps       ncg     rms          rms(c)
DAV:   1    -0.384002274576E+02   -0.37384E-06   -0.36496E-05  9920   0.343E-02    0.217E-03
DAV:   2    -0.384002275291E+02   -0.71508E-07   -0.11884E-06 11620   0.910E-03    0.124E-03
DAV:   3    -0.384002275068E+02    0.22342E-07   -0.66153E-08 11580   0.349E-03    0.661E-04
DAV:   4    -0.384002274981E+02    0.86793E-08   -0.16430E-08  5816   0.216E-03
 236 F= -.38400227E+02 E0= -.38397422E+02  d E =-.413985E-06
 ZBRENT: can't locate minimum, use default step
 trial-energy change:   -0.000000  1 .order   -0.000000   -0.000000   -0.000000
 step:   0.0354(harm=  0.0354)  dis= 0.00018  next Energy=   -38.400229 (dE=-0.166E-05)
 bond charge predicted
       N       E                     dE             d eps       ncg     rms          rms(c)
DAV:   1    -0.384002283402E+02   -0.83348E-06   -0.32425E-04  9916   0.102E-01    0.627E-03
DAV:   2    -0.384002288357E+02   -0.49551E-06   -0.10057E-05 11512   0.247E-02    0.359E-03
DAV:   3    -0.384002286703E+02    0.16544E-06   -0.55927E-07 13188   0.667E-03    0.185E-03
DAV:   4    -0.384002286167E+02    0.53557E-07   -0.11914E-07 11844   0.408E-03    0.538E-04
DAV:   5    -0.384002286098E+02    0.69690E-08   -0.44214E-08 10536   0.172E-03
 237 F= -.38400229E+02 E0= -.38397424E+02  d E =-.152569E-05
 curvature:  -1.54 expect dE=-0.326E-04 dE for cont linesearch -0.847E-06
 ZBRENT: increasing intervall
 opt :   0.0885  next Energy=   -38.400230 (dE=-0.302E-05)
 bond charge predicted
       N       E                     dE             d eps       ncg     rms          rms(c)
DAV:   1    -0.384002292609E+02   -0.64419E-06   -0.12990E-03  9924   0.204E-01    0.126E-02
DAV:   2    -0.384002311767E+02   -0.19158E-05   -0.40458E-05 11532   0.496E-02    0.718E-03
DAV:   3    -0.384002305574E+02    0.61936E-06   -0.22211E-06 13104   0.129E-02    0.369E-03
DAV:   4    -0.384002303557E+02    0.20170E-06   -0.46084E-07 11752   0.725E-03    0.107E-03
DAV:   5    -0.384002303419E+02    0.13757E-07   -0.17954E-07 11272   0.313E-03    0.443E-04
DAV:   6    -0.384002303407E+02    0.12633E-08   -0.12622E-08  5956   0.151E-03
 238 F= -.38400230E+02 E0= -.38397428E+02  d E =-.325657E-05
 curvature:  -2.72 expect dE=-0.189E-04 dE for cont linesearch -0.590E-06
 ZBRENT: increasing intervall
 opt :   0.1946  next Energy=   -38.400231 (dE=-0.424E-05)
 bond charge predicted
       N       E                     dE             d eps       ncg     rms          rms(c)
DAV:   1    -0.384002275458E+02    0.27961E-05   -0.51971E-03  9920   0.407E-01    0.251E-02
DAV:   2    -0.384002350397E+02   -0.74939E-05   -0.16203E-04 11524   0.994E-02    0.144E-02
DAV:   3    -0.384002326385E+02    0.24012E-05   -0.88636E-06 13068   0.261E-02    0.739E-03
DAV:   4    -0.384002318592E+02    0.77926E-06   -0.19085E-06 11732   0.153E-02    0.212E-03
DAV:   5    -0.384002318366E+02    0.22591E-07   -0.71857E-07 11344   0.649E-03    0.880E-04
DAV:   6    -0.384002318319E+02    0.47735E-08   -0.60826E-08 11584   0.316E-03
 239 F= -.38400232E+02 E0= -.38397434E+02  d E =-.474778E-05
 curvature:  -4.55 expect dE=-0.647E-04 dE for cont linesearch -0.964E-08
 trial: gam= 0.75937 g(F)=  0.122E-04 g(S)=  0.199E-05 ort =-0.226E-05 (trialstep = 0.460E-01)
 search vector abs. value=  0.141E-02
 bond charge predicted
       N       E                     dE             d eps       ncg     rms          rms(c)
DAV:   1    -0.384002320987E+02   -0.26205E-06   -0.56488E-04  9932   0.136E-01    0.878E-03
DAV:   2    -0.384002328738E+02   -0.77515E-06   -0.18811E-05 11324   0.371E-02    0.490E-03
DAV:   3    -0.384002325835E+02    0.29039E-06   -0.12581E-06 12296   0.111E-02    0.255E-03
DAV:   4    -0.384002324751E+02    0.10841E-06   -0.25285E-07 11964   0.677E-03    0.688E-04
DAV:   5    -0.384002324657E+02    0.94042E-08   -0.90808E-08 11196   0.286E-03
 240 F= -.38400232E+02 E0= -.38397436E+02  d E =-.633775E-06
 ZBRENT: can't locate minimum, use default step
 trial-energy change:   -0.000001  1 .order   -0.000001   -0.000001   -0.000000
 step:   0.1840(harm=  0.3287)  dis= 0.00076  next Energy=   -38.400234 (dE=-0.205E-05)
 bond charge predicted
       N       E                     dE             d eps       ncg     rms          rms(c)
DAV:   1    -0.384002331486E+02   -0.67352E-06   -0.50728E-03  9932   0.407E-01    0.262E-02
DAV:   2    -0.384002397565E+02   -0.66079E-05   -0.16783E-04 11272   0.111E-01    0.146E-02
DAV:   3    -0.384002375013E+02    0.22552E-05   -0.11482E-05 12296   0.320E-02    0.760E-03
DAV:   4    -0.384002366235E+02    0.87781E-06   -0.21535E-06 12108   0.188E-02    0.209E-03
DAV:   5    -0.384002365972E+02    0.26210E-07   -0.80893E-07 11424   0.769E-03    0.833E-04
DAV:   6    -0.384002365978E+02   -0.60709E-09   -0.73800E-08 11316   0.373E-03
 241 F= -.38400237E+02 E0= -.38397443E+02  d E =-.476597E-05
 curvature: -13.67 expect dE=-0.853E-04 dE for cont linesearch -0.308E-07
 trial: gam=-0.16101 g(F)=  0.466E-05 g(S)=  0.158E-05 ort = 0.178E-05 (trialstep = 0.736E-01)
 search vector abs. value=  0.421E-04
 bond charge predicted
       N       E                     dE             d eps       ncg     rms          rms(c)
DAV:   1    -0.384002368764E+02   -0.27919E-06   -0.43156E-05  9876   0.371E-02    0.230E-03
DAV:   2    -0.384002369292E+02   -0.52804E-07   -0.14047E-06 11480   0.910E-03    0.140E-03
DAV:   3    -0.384002369064E+02    0.22789E-07   -0.73474E-08 12144   0.321E-03    0.716E-04
DAV:   4    -0.384002369042E+02    0.22537E-08   -0.20228E-08  6160   0.207E-03
 242 F= -.38400237E+02 E0= -.38397443E+02  d E =-.306342E-06
 trial-energy change:   -0.000000  1 .order   -0.000000   -0.000000   -0.000000
 step:   0.1795(harm=  0.1795)  dis= 0.00007  next Energy=   -38.400237 (dE=-0.535E-06)
 bond charge predicted
       N       E                     dE             d eps       ncg     rms          rms(c)
DAV:   1    -0.384002369838E+02   -0.77368E-07   -0.90072E-05  9876   0.535E-02    0.339E-03
DAV:   2    -0.384002371120E+02   -0.12819E-06   -0.29906E-06 11552   0.127E-02    0.206E-03
DAV:   3    -0.384002370622E+02    0.49826E-07   -0.13715E-07 13148   0.309E-03    0.103E-03
DAV:   4    -0.384002370545E+02    0.76279E-08   -0.41547E-08 10588   0.182E-03
 243 F= -.38400237E+02 E0= -.38397442E+02  d E =-.456702E-06
 curvature:  -0.63 expect dE=-0.443E-05 dE for cont linesearch -0.632E-09
 trial: gam= 0.99199 g(F)=  0.422E-05 g(S)=  0.277E-05 ort = 0.205E-06 (trialstep = 0.817E-01)
 search vector abs. value=  0.489E-04
 bond charge predicted
       N       E                     dE             d eps       ncg     rms          rms(c)
DAV:   1    -0.384002346988E+02    0.23634E-05   -0.57418E-05  9868   0.434E-02    0.346E-03
DAV:   2    -0.384002347170E+02   -0.18258E-07   -0.18574E-06 11240   0.118E-02    0.203E-03
DAV:   3    -0.384002346734E+02    0.43638E-07   -0.14018E-07 13660   0.364E-03    0.786E-04
DAV:   4    -0.384002346687E+02    0.46689E-08   -0.37105E-08  9500   0.175E-03
 244 F= -.38400235E+02 E0= -.38397440E+02  d E =0.238583E-05
 ZBRENT: can't locate minimum, use default step
 trial-energy change:    0.000002  1 .order   -0.000001   -0.000001   -0.000000
 step:   0.3270(harm=  0.5207)  dis= 0.00014  next Energy=   -38.400239 (dE=-0.187E-05)
 bond charge predicted
       N       E                     dE             d eps       ncg     rms          rms(c)
DAV:   1    -0.384002361078E+02   -0.14344E-05   -0.51674E-04  9868   0.130E-01    0.103E-02
DAV:   2    -0.384002363241E+02   -0.21628E-06   -0.16978E-05 11288   0.361E-02    0.607E-03
DAV:   3    -0.384002358334E+02    0.49066E-06   -0.12843E-06 13544   0.127E-02    0.242E-03
DAV:   4    -0.384002357685E+02    0.64970E-07   -0.35098E-07 10836   0.712E-03    0.533E-04
DAV:   5    -0.384002357766E+02   -0.81541E-08   -0.91748E-08 11040   0.306E-03
 245 F= -.38400236E+02 E0= -.38397441E+02  d E =0.127794E-05
 curvature:  -1.42 expect dE=-0.246E-05 dE for cont linesearch -0.212E-06
 ZBRENT: increasing intervall
 opt :   0.8175  next Energy=   -38.400235 (dE= 0.161E-05)
 bond charge predicted
       N       E                     dE             d eps       ncg     rms          rms(c)
DAV:   1    -0.384002371408E+02   -0.13724E-05   -0.20680E-03  9868   0.261E-01    0.206E-02
DAV:   2    -0.384002380529E+02   -0.91210E-06   -0.68057E-05 11272   0.717E-02    0.121E-02
DAV:   3    -0.384002359751E+02    0.20779E-05   -0.50408E-06 13660   0.234E-02    0.482E-03
DAV:   4    -0.384002357039E+02    0.27115E-06   -0.13849E-06 10736   0.125E-02    0.105E-03
DAV:   5    -0.384002357301E+02   -0.26178E-07   -0.33803E-07 11780   0.564E-03    0.676E-04
DAV:   6    -0.384002357283E+02    0.17644E-08   -0.37147E-08  8784   0.386E-03
 246 F= -.38400236E+02 E0= -.38397442E+02  d E =0.132623E-05
 curvature:   2.20 expect dE= 0.348E-04 dE for cont linesearch  0.561E-06
 ZBRENT: bracketing found
 ZBRENT: interpolating
 opt :   0.5395  next Energy=   -38.400236 (dE= 0.992E-06)
 bond charge predicted
       N       E                     dE             d eps       ncg     rms          rms(c)
DAV:   1    -0.384002366774E+02   -0.94727E-06   -0.66334E-04  9868   0.148E-01    0.116E-02
DAV:   2    -0.384002369820E+02   -0.30463E-06   -0.21737E-05 11320   0.406E-02    0.687E-03
DAV:   3    -0.384002362160E+02    0.76593E-06   -0.15994E-06 13648   0.132E-02    0.270E-03
DAV:   4    -0.384002361165E+02    0.99567E-07   -0.43815E-07 10768   0.708E-03    0.589E-04
DAV:   5    -0.384002361203E+02   -0.37826E-08   -0.10747E-07 11452   0.318E-03    0.381E-04
DAV:   6    -0.384002361209E+02   -0.61891E-09   -0.10747E-08  5760   0.215E-03
 247 F= -.38400236E+02 E0= -.38397442E+02  d E =0.933668E-06
 curvature:  -1.12 expect dE=-0.497E-05 dE for cont linesearch -0.614E-08
 trial: gam= 0.89745 g(F)=  0.354E-05 g(S)=  0.878E-06 ort = 0.517E-06 (trialstep = 0.173E+00)
 search vector abs. value=  0.447E-04
 bond charge predicted
       N       E                     dE             d eps       ncg     rms          rms(c)
DAV:   1    -0.384002367443E+02   -0.62404E-06   -0.22890E-04  9880   0.880E-02    0.743E-03
DAV:   2    -0.384002367797E+02   -0.35358E-07   -0.83277E-06 11484   0.293E-02    0.450E-03
DAV:   3    -0.384002364655E+02    0.31421E-06   -0.81017E-07 12852   0.986E-03    0.202E-03
DAV:   4    -0.384002364071E+02    0.58341E-07   -0.19419E-07 11580   0.533E-03    0.408E-04
DAV:   5    -0.384002364147E+02   -0.75584E-08   -0.65852E-08 10440   0.250E-03
 248 F= -.38400236E+02 E0= -.38397442E+02  d E =-.293787E-06
 trial-energy change:   -0.000000  1 .order   -0.000000   -0.000001    0.000000
 step:   0.1419(harm=  0.1419)  dis= 0.00006  next Energy=   -38.400236 (dE=-0.346E-06)
 bond charge predicted
       N       E                     dE             d eps       ncg     rms          rms(c)
DAV:   1    -0.384002364397E+02   -0.32570E-07   -0.74984E-06  9884   0.160E-02    0.133E-03
DAV:   2    -0.384002364409E+02   -0.12269E-08   -0.26655E-07 11432   0.532E-03    0.805E-04
DAV:   3    -0.384002364418E+02   -0.86629E-09   -0.23130E-08  7392   0.201E-03
 249 F= -.38400236E+02 E0= -.38397442E+02  d E =-.320892E-06
 curvature:  -0.65 expect dE=-0.999E-06 dE for cont linesearch -0.236E-08
 trial: gam= 0.44063 g(F)=  0.126E-05 g(S)=  0.282E-06 ort =-0.403E-06 (trialstep = 0.167E+00)
 search vector abs. value=  0.986E-05
 bond charge predicted
       N       E                     dE             d eps       ncg     rms          rms(c)
DAV:   1    -0.384002368931E+02   -0.45219E-06   -0.41265E-05 10024   0.383E-02    0.399E-03
DAV:   2    -0.384002367991E+02    0.93974E-07   -0.14868E-06 11484   0.143E-02    0.232E-03
DAV:   3    -0.384002366945E+02    0.10463E-06   -0.18038E-07 13256   0.516E-03    0.941E-04
DAV:   4    -0.384002366792E+02    0.15329E-07   -0.48106E-08  9296   0.261E-03    0.169E-04
DAV:   5    -0.384002366803E+02   -0.10918E-08   -0.15843E-08  5160   0.120E-03
 250 F= -.38400237E+02 E0= -.38397443E+02  d E =-.238479E-06
 ZBRENT: can't locate minimum, use default step
 trial-energy change:   -0.000000  1 .order   -0.000000   -0.000000   -0.000000
 step:   0.6680(harm=  1.0333)  dis= 0.00014  next Energy=   -38.400237 (dE=-0.703E-06)
 bond charge predicted
       N       E                     dE             d eps       ncg     rms          rms(c)
DAV:   1    -0.384002388522E+02   -0.21731E-05   -0.37088E-04 10024   0.114E-01    0.120E-02
DAV:   2    -0.384002378604E+02    0.99187E-06   -0.12895E-05 11616   0.420E-02    0.698E-03
DAV:   3    -0.384002370630E+02    0.79734E-06   -0.15933E-06 13344   0.150E-02    0.278E-03
DAV:   4    -0.384002369441E+02    0.11893E-06   -0.43231E-07 11568   0.733E-03    0.506E-04
DAV:   5    -0.384002369536E+02   -0.95424E-08   -0.13592E-07 10572   0.306E-03    0.317E-04
DAV:   6    -0.384002369588E+02   -0.51555E-08   -0.70952E-09  5596   0.113E-03
 251 F= -.38400237E+02 E0= -.38397444E+02  d E =-.517030E-06
 curvature:  -3.08 expect dE=-0.523E-05 dE for cont linesearch -0.133E-07
 trial: gam= 1.24296 g(F)=  0.150E-05 g(S)=  0.200E-06 ort =-0.206E-06 (trialstep = 0.160E+00)
 search vector abs. value=  0.164E-04
 bond charge predicted
       N       E                     dE             d eps       ncg     rms          rms(c)
DAV:   1    -0.384002373674E+02   -0.41377E-06   -0.61662E-05 10244   0.498E-02    0.534E-03
DAV:   2    -0.384002372117E+02    0.15574E-06   -0.32634E-06 11636   0.225E-02    0.299E-03
DAV:   3    -0.384002370575E+02    0.15413E-06   -0.35951E-07 12060   0.684E-03    0.139E-03
DAV:   4    -0.384002370112E+02    0.46321E-07   -0.74671E-08 10800   0.409E-03    0.236E-04
DAV:   5    -0.384002370132E+02   -0.19540E-08   -0.31194E-08  8680   0.176E-03
 252 F= -.38400237E+02 E0= -.38397444E+02  d E =-.543728E-07
 trial-energy change:   -0.000000  1 .order   -0.000000   -0.000000    0.000000
 step:   0.1087(harm=  0.1087)  dis= 0.00003  next Energy=   -38.400237 (dE=-0.785E-07)
 bond charge predicted
       N       E                     dE             d eps       ncg     rms          rms(c)
DAV:   1    -0.384002370552E+02   -0.43969E-07   -0.64195E-06 10232   0.161E-02    0.172E-03
DAV:   2    -0.384002370342E+02    0.21038E-07   -0.34141E-07 11584   0.728E-03    0.964E-04
DAV:   3    -0.384002370371E+02   -0.29277E-08   -0.35605E-08  8268   0.224E-03
 253 F= -.38400237E+02 E0= -.38397444E+02  d E =-.782775E-07
 curvature:  -0.62 expect dE=-0.310E-06 dE for cont linesearch -0.468E-08
 trial: gam= 0.10103 g(F)=  0.471E-06 g(S)=  0.312E-07 ort =-0.352E-06 (trialstep = 0.150E+00)
 search vector abs. value=  0.599E-06
 reached required accuracy - stopping structural energy minimisation
 writing wavefunctions
Thu Jan  6 01:03:16 CST 2022
