Thu Jan  6 01:59:11 CST 2022
 running on   48 total cores
 distrk:  each k-point on   48 cores,    1 groups
 distr:  one band on   24 cores,    2 groups
 using from now: INCAR     
 vasp.5.3.5 31Mar14 (build Jan 11 2016 19:50:55) complex                        
  
 POSCAR found type information on POSCAR  Zn Ga N  O 
 POSCAR found :  4 types and       8 ions
 scaLAPACK will be used

 ----------------------------------------------------------------------------- 
|                                                                             |
|           W    W    AA    RRRRR   N    N  II  N    N   GGGG   !!!           |
|           W    W   A  A   R    R  NN   N  II  NN   N  G    G  !!!           |
|           W    W  A    A  R    R  N N  N  II  N N  N  G       !!!           |
|           W WW W  AAAAAA  RRRRR   N  N N  II  N  N N  G  GGG   !            |
|           WW  WW  A    A  R   R   N   NN  II  N   NN  G    G                |
|           W    W  A    A  R    R  N    N  II  N    N   GGGG   !!!           |
|                                                                             |
|      For optimal performance we recommend to set                            |
|        NCORE= 4 - approx SQRT( number of cores)                             |
|      NCORE specifies how many cores store one orbital (NPAR=cpu/NCORE).     |
|      This setting can  greatly improve the performance of VASP for DFT.     |
|      The default, NPAR=number of cores might be grossly inefficient         |
|      on modern multi-core architectures or massively parallel machines.     |
|      Do your own testing !!!!                                               |
|      Unfortunately you need to use the default for GW and RPA calculations. |
|      (for HF NCORE is supported but not extensively tested yet)             |
|                                                                             |
 ----------------------------------------------------------------------------- 

 LDA part: xc-table for Pade appr. of Perdew
 POSCAR, INCAR and KPOINTS ok, starting setup
 WARNING: small aliasing (wrap around) errors must be expected
 FFT: planning ...
 WAVECAR not read
 entering main loop
       N       E                     dE             d eps       ncg     rms          rms(c)
DAV:   1     0.898774644273E+03    0.89877E+03   -0.41852E+04 10140   0.323E+03
DAV:   2     0.147460419221E+03   -0.75131E+03   -0.72247E+03  9920   0.769E+02
DAV:   3    -0.284893468005E+02   -0.17595E+03   -0.17076E+03 11356   0.264E+02
DAV:   4    -0.445431883970E+02   -0.16054E+02   -0.15889E+02 12204   0.804E+01
DAV:   5    -0.450715395423E+02   -0.52835E+00   -0.52611E+00 12580   0.140E+01    0.168E+01
DAV:   6    -0.378231533486E+02    0.72484E+01   -0.25090E+01 18752   0.761E+01    0.784E+00
DAV:   7    -0.382757582631E+02   -0.45260E+00   -0.71332E+00 10660   0.185E+01    0.514E+00
DAV:   8    -0.382431770549E+02    0.32581E-01   -0.13887E+00 16096   0.887E+00    0.212E+00
DAV:   9    -0.381792642053E+02    0.63913E-01   -0.28955E-01 14964   0.712E+00    0.591E-01
DAV:  10    -0.381824209355E+02   -0.31567E-02   -0.78838E-02 11012   0.183E+00    0.260E-01
DAV:  11    -0.381832027170E+02   -0.78178E-03   -0.62281E-03 12696   0.121E+00    0.132E-01
DAV:  12    -0.381834862381E+02   -0.28352E-03   -0.12519E-03 11904   0.643E-01    0.367E-02
DAV:  13    -0.381835771537E+02   -0.90916E-04   -0.35657E-04 12324   0.127E-01    0.192E-02
DAV:  14    -0.381835995560E+02   -0.22402E-04   -0.48510E-05 11660   0.768E-02    0.930E-03
DAV:  15    -0.381836104034E+02   -0.10847E-04   -0.21589E-05 10904   0.535E-02    0.487E-03
DAV:  16    -0.381836112067E+02   -0.80332E-06   -0.54813E-06 12944   0.251E-02    0.309E-03
DAV:  17    -0.381836114114E+02   -0.20470E-06   -0.12412E-06 11888   0.160E-02    0.188E-03
DAV:  18    -0.381836114159E+02   -0.44997E-08   -0.41196E-07 10924   0.724E-03    0.709E-04
DAV:  19    -0.381836113905E+02    0.25485E-07   -0.95972E-08 11156   0.189E-03    0.245E-04
DAV:  20    -0.381836113799E+02    0.10585E-07   -0.10583E-08  7944   0.195E-03    0.161E-04
DAV:  21    -0.381836113861E+02   -0.62191E-08   -0.42920E-09  6196   0.837E-04
   1 F= -.38183611E+02 E0= -.38183603E+02  d E =-.381836E+02
 curvature:   0.00 expect dE= 0.000E+00 dE for cont linesearch  0.000E+00
 trial: gam= 0.00000 g(F)=  0.426E-04 g(S)=  0.500E-03 ort = 0.000E+00 (trialstep = 0.100E+01)
 search vector abs. value=  0.543E-03
 bond charge predicted
       N       E                     dE             d eps       ncg     rms          rms(c)
DAV:   1    -0.381879223321E+02   -0.43110E-02   -0.80943E-02 12592   0.324E+00    0.446E-01
DAV:   2    -0.381846664988E+02    0.32558E-02   -0.16079E-02 12832   0.185E+00    0.182E-01
DAV:   3    -0.381841716978E+02    0.49480E-03   -0.12060E-03 14948   0.411E-01    0.887E-02
DAV:   4    -0.381839766258E+02    0.19507E-03   -0.19887E-04 16624   0.211E-01    0.213E-02
DAV:   5    -0.381839737104E+02    0.29154E-05   -0.11274E-04 10720   0.887E-02    0.830E-03
DAV:   6    -0.381839740590E+02   -0.34862E-06   -0.15238E-05 15044   0.281E-02    0.473E-03
DAV:   7    -0.381839739438E+02    0.11514E-06   -0.23804E-06 13328   0.143E-02    0.272E-03
DAV:   8    -0.381839741511E+02   -0.20724E-06   -0.70636E-07 12756   0.848E-03    0.124E-03
DAV:   9    -0.381839741648E+02   -0.13666E-07   -0.14275E-07 13196   0.419E-03    0.634E-04
DAV:  10    -0.381839741745E+02   -0.97002E-08   -0.62940E-08 11664   0.226E-03
   2 F= -.38183974E+02 E0= -.38183965E+02  d E =-.362788E-03
 trial-energy change:   -0.000363  1 .order   -0.000364   -0.000543   -0.000185
 step:   1.5287(harm=  1.5149)  dis= 0.00099  next Energy=   -38.184023 (dE=-0.411E-03)
 bond charge predicted
       N       E                     dE             d eps       ncg     rms          rms(c)
DAV:   1    -0.381851233988E+02   -0.11492E-02   -0.22571E-02 12584   0.171E+00    0.236E-01
DAV:   2    -0.381842143763E+02    0.90902E-03   -0.44859E-03 12792   0.978E-01    0.963E-02
DAV:   3    -0.381840759564E+02    0.13842E-03   -0.33750E-04 14960   0.218E-01    0.468E-02
DAV:   4    -0.381840211745E+02    0.54782E-04   -0.55407E-05 16632   0.112E-01    0.113E-02
DAV:   5    -0.381840201732E+02    0.10014E-05   -0.31458E-05 10728   0.469E-02    0.439E-03
DAV:   6    -0.381840202771E+02   -0.10394E-06   -0.42739E-06 15052   0.149E-02    0.250E-03
DAV:   7    -0.381840202565E+02    0.20560E-07   -0.66858E-07 13216   0.779E-03    0.143E-03
DAV:   8    -0.381840203457E+02   -0.89161E-07   -0.19781E-07 12644   0.446E-03    0.657E-04
DAV:   9    -0.381840203553E+02   -0.95729E-08   -0.37659E-08  9708   0.225E-03
   3 F= -.38184020E+02 E0= -.38184011E+02  d E =-.408969E-03
 curvature:  -0.76 expect dE=-0.377E-03 dE for cont linesearch -0.180E-07
 trial: gam= 0.92390 g(F)=  0.315E-03 g(S)=  0.184E-03 ort =-0.359E-05 (trialstep = 0.629E+00)
 search vector abs. value=  0.955E-03
 bond charge predicted
       N       E                     dE             d eps       ncg     rms          rms(c)
DAV:   1    -0.381851721793E+02   -0.11518E-02   -0.49175E-02 10308   0.150E+00    0.220E-01
DAV:   2    -0.381845565573E+02    0.61562E-03   -0.40000E-03 11680   0.862E-01    0.112E-01
DAV:   3    -0.381843428717E+02    0.21369E-03   -0.47916E-04 13528   0.288E-01    0.530E-02
DAV:   4    -0.381842831243E+02    0.59747E-04   -0.13372E-04 12136   0.170E-01    0.106E-02
DAV:   5    -0.381842858853E+02   -0.27610E-05   -0.52857E-05 10716   0.839E-02    0.594E-03
DAV:   6    -0.381842864029E+02   -0.51766E-06   -0.75767E-06 12492   0.421E-02    0.385E-03
DAV:   7    -0.381842864915E+02   -0.88588E-07   -0.11644E-06 11924   0.235E-02    0.204E-03
DAV:   8    -0.381842866074E+02   -0.11588E-06   -0.45461E-07 13248   0.743E-03    0.586E-04
DAV:   9    -0.381842866254E+02   -0.18033E-07   -0.10169E-07 11592   0.426E-03    0.358E-04
DAV:  10    -0.381842866344E+02   -0.89885E-08   -0.20671E-08  7804   0.162E-03
   4 F= -.38184287E+02 E0= -.38184278E+02  d E =-.266279E-03
 trial-energy change:   -0.000266  1 .order   -0.000263   -0.000311   -0.000214
 step:   1.5317(harm=  2.0205)  dis= 0.00210  next Energy=   -38.184451 (dE=-0.431E-03)
 bond charge predicted
       N       E                     dE             d eps       ncg     rms          rms(c)
DAV:   1    -0.381863202751E+02   -0.20336E-02   -0.10130E-01 10308   0.215E+00    0.316E-01
DAV:   2    -0.381850558670E+02    0.12644E-02   -0.82296E-03 11712   0.124E+00    0.161E-01
DAV:   3    -0.381846163618E+02    0.43951E-03   -0.98410E-04 13524   0.412E-01    0.761E-02
DAV:   4    -0.381844935367E+02    0.12283E-03   -0.27497E-04 12160   0.243E-01    0.152E-02
DAV:   5    -0.381844992833E+02   -0.57466E-05   -0.10873E-04 10712   0.120E-01    0.852E-03
DAV:   6    -0.381845003060E+02   -0.10227E-05   -0.15400E-05 12488   0.598E-02    0.552E-03
DAV:   7    -0.381845004533E+02   -0.14729E-06   -0.23841E-06 11960   0.334E-02    0.292E-03
DAV:   8    -0.381845006527E+02   -0.19946E-06   -0.92556E-07 13196   0.107E-02    0.839E-04
DAV:   9    -0.381845006864E+02   -0.33625E-07   -0.20818E-07 11652   0.609E-03    0.513E-04
DAV:  10    -0.381845007016E+02   -0.15281E-07   -0.47236E-08 10200   0.232E-03    0.297E-04
DAV:  11    -0.381845007075E+02   -0.58758E-08   -0.14016E-08  7116   0.224E-03
   5 F= -.38184501E+02 E0= -.38184493E+02  d E =-.480352E-03
 curvature:  -1.71 expect dE=-0.786E-03 dE for cont linesearch -0.282E-04
 ZBRENT: increasing intervall
 opt :   3.3377  next Energy=   -38.184338 (dE=-0.318E-03)
 bond charge predicted
       N       E                     dE             d eps       ncg     rms          rms(c)
DAV:   1    -0.381915710314E+02   -0.70703E-02   -0.40444E-01 10308   0.430E+00    0.630E-01
DAV:   2    -0.381865451419E+02    0.50259E-02   -0.32831E-02 11736   0.247E+00    0.321E-01
DAV:   3    -0.381847952138E+02    0.17499E-02   -0.39197E-03 13540   0.822E-01    0.152E-01
DAV:   4    -0.381843067625E+02    0.48845E-03   -0.10982E-03 12168   0.483E-01    0.305E-02
DAV:   5    -0.381843294711E+02   -0.22709E-04   -0.43147E-04 10720   0.239E-01    0.170E-02
DAV:   6    -0.381843334533E+02   -0.39821E-05   -0.61818E-05 12488   0.120E-01    0.110E-02
DAV:   7    -0.381843338851E+02   -0.43182E-06   -0.95839E-06 11992   0.667E-02    0.583E-03
DAV:   8    -0.381843345110E+02   -0.62590E-06   -0.36974E-06 13148   0.214E-02    0.168E-03
DAV:   9    -0.381843346277E+02   -0.11674E-06   -0.83506E-07 11704   0.122E-02    0.103E-03
DAV:  10    -0.381843346757E+02   -0.47951E-07   -0.19988E-07 13224   0.468E-03    0.609E-04
DAV:  11    -0.381843346919E+02   -0.16244E-07   -0.56554E-08 11108   0.420E-03    0.256E-04
DAV:  12    -0.381843346939E+02   -0.19791E-08   -0.12881E-08  6884   0.168E-03
   6 F= -.38184335E+02 E0= -.38184328E+02  d E =-.314339E-03
 curvature:   9.86 expect dE= 0.215E-01 dE for cont linesearch  0.100E-02
 ZBRENT: bracketing found
 ZBRENT: interpolating
 opt :   2.0506  next Energy=   -38.184533 (dE=-0.513E-03)
 bond charge predicted
       N       E                     dE             d eps       ncg     rms          rms(c)
DAV:   1    -0.381881968631E+02   -0.38622E-02   -0.20458E-01 10304   0.304E+00    0.448E-01
DAV:   2    -0.381856472938E+02    0.25496E-02   -0.16491E-02 11744   0.175E+00    0.229E-01
DAV:   3    -0.381847644986E+02    0.88280E-03   -0.19794E-03 13488   0.590E-01    0.108E-01
DAV:   4    -0.381845174740E+02    0.24702E-03   -0.56018E-04 12232   0.348E-01    0.214E-02
DAV:   5    -0.381845297823E+02   -0.12308E-04   -0.22166E-04 10704   0.171E-01    0.122E-02
DAV:   6    -0.381845316224E+02   -0.18401E-05   -0.30578E-05 12520   0.840E-02    0.786E-03
DAV:   7    -0.381845316524E+02   -0.29944E-07   -0.47821E-06 11864   0.466E-02    0.415E-03
DAV:   8    -0.381845317653E+02   -0.11298E-06   -0.18693E-06 13212   0.149E-02    0.119E-03
DAV:   9    -0.381845317952E+02   -0.29883E-07   -0.41065E-07 11684   0.831E-03    0.728E-04
DAV:  10    -0.381845317994E+02   -0.41719E-08   -0.99129E-08 12768   0.334E-03
   7 F= -.38184532E+02 E0= -.38184524E+02  d E =-.511444E-03
 curvature:  -0.32 expect dE=-0.242E-03 dE for cont linesearch -0.139E-08
 trial: gam= 1.49018 g(F)=  0.644E-03 g(S)=  0.111E-03 ort = 0.203E-05 (trialstep = 0.303E+00)
 search vector abs. value=  0.288E-02
 bond charge predicted
       N       E                     dE             d eps       ncg     rms          rms(c)
DAV:   1    -0.381851099800E+02   -0.57818E-03   -0.38337E-02  9976   0.117E+00    0.146E-01
DAV:   2    -0.381848777640E+02    0.23222E-03   -0.19015E-03 11672   0.542E-01    0.801E-02
DAV:   3    -0.381847679847E+02    0.10978E-03   -0.25697E-04 13016   0.211E-01    0.359E-02
DAV:   4    -0.381847427017E+02    0.25283E-04   -0.75513E-05 11752   0.129E-01    0.720E-03
DAV:   5    -0.381847445204E+02   -0.18187E-05   -0.27117E-05 10660   0.623E-02    0.452E-03
DAV:   6    -0.381847447460E+02   -0.22567E-06   -0.35737E-06 12464   0.315E-02    0.282E-03
DAV:   7    -0.381847448136E+02   -0.67577E-07   -0.67878E-07 11852   0.141E-02    0.152E-03
DAV:   8    -0.381847448744E+02   -0.60746E-07   -0.23027E-07 12012   0.550E-03    0.434E-04
DAV:   9    -0.381847448882E+02   -0.13895E-07   -0.53624E-08 10260   0.257E-03    0.246E-04
DAV:  10    -0.381847448929E+02   -0.46048E-08   -0.97184E-09  6564   0.178E-03
   8 F= -.38184745E+02 E0= -.38184738E+02  d E =-.213093E-03
 ZBRENT: can't locate minimum, use default step
 trial-energy change:   -0.000213  1 .order   -0.000212   -0.000229   -0.000195
 step:   1.2105(harm=  2.0181)  dis= 0.00439  next Energy=   -38.185100 (dE=-0.568E-03)
 bond charge predicted
       N       E                     dE             d eps       ncg     rms          rms(c)
DAV:   1    -0.381884539847E+02   -0.37091E-02   -0.34486E-01  9976   0.353E+00    0.439E-01
DAV:   2    -0.381863739438E+02    0.20800E-02   -0.17126E-02 11680   0.163E+00    0.240E-01
DAV:   3    -0.381853898992E+02    0.98404E-03   -0.23161E-03 13056   0.637E-01    0.108E-01
DAV:   4    -0.381851629369E+02    0.22696E-03   -0.68248E-04 11704   0.388E-01    0.216E-02
DAV:   5    -0.381851791101E+02   -0.16173E-04   -0.24312E-04 10692   0.187E-01    0.135E-02
DAV:   6    -0.381851810463E+02   -0.19361E-05   -0.32923E-05 12480   0.976E-02    0.844E-03
DAV:   7    -0.381851814816E+02   -0.43529E-06   -0.62288E-06 12032   0.430E-02    0.455E-03
DAV:   8    -0.381851818596E+02   -0.37801E-06   -0.21161E-06 12592   0.165E-02    0.131E-03
DAV:   9    -0.381851819440E+02   -0.84428E-07   -0.48140E-07 11356   0.776E-03    0.751E-04
DAV:  10    -0.381851819703E+02   -0.26295E-07   -0.11335E-07 13144   0.552E-03    0.430E-04
DAV:  11    -0.381851819813E+02   -0.10955E-07   -0.31385E-08  8936   0.289E-03    0.208E-04
DAV:  12    -0.381851819831E+02   -0.18053E-08   -0.95013E-09  6224   0.112E-03
   9 F= -.38185182E+02 E0= -.38185175E+02  d E =-.650184E-03
 curvature:  -2.99 expect dE=-0.118E-02 dE for cont linesearch -0.100E-03
 ZBRENT: increasing intervall
 opt :   3.0263  next Energy=   -38.185141 (dE=-0.609E-03)
 bond charge predicted
       N       E                     dE             d eps       ncg     rms          rms(c)
DAV:   1    -0.381980918590E+02   -0.12910E-01   -0.13767E+00  9980   0.706E+00    0.875E-01
DAV:   2    -0.381898822352E+02    0.82096E-02   -0.68453E-02 11672   0.326E+00    0.479E-01
DAV:   3    -0.381859690353E+02    0.39132E-02   -0.92397E-03 12976   0.128E+00    0.215E-01
DAV:   4    -0.381850714802E+02    0.89756E-03   -0.27668E-03 11696   0.785E-01    0.434E-02
DAV:   5    -0.381851350625E+02   -0.63582E-04   -0.96775E-04 10696   0.378E-01    0.271E-02
DAV:   6    -0.381851430421E+02   -0.79796E-05   -0.13811E-04 12504   0.204E-01    0.168E-02
DAV:   7    -0.381851446561E+02   -0.16140E-05   -0.26159E-05 12588   0.892E-02    0.912E-03
DAV:   8    -0.381851460013E+02   -0.13452E-05   -0.86284E-06 12568   0.324E-02    0.264E-03
DAV:   9    -0.381851463038E+02   -0.30250E-06   -0.19134E-06 11448   0.161E-02    0.153E-03
DAV:  10    -0.381851463870E+02   -0.83208E-07   -0.45334E-07 13460   0.113E-02    0.868E-04
DAV:  11    -0.381851464245E+02   -0.37488E-07   -0.13653E-07 11672   0.594E-03    0.450E-04
DAV:  12    -0.381851464293E+02   -0.48053E-08   -0.42120E-08  9572   0.200E-03
  10 F= -.38185146E+02 E0= -.38185140E+02  d E =-.614630E-03
 curvature:   1.22 expect dE= 0.225E-02 dE for cont linesearch  0.535E-04
 ZBRENT: bracketing found
 ZBRENT: interpolating
 opt :   2.0586  next Energy=   -38.185314 (dE=-0.782E-03)
 bond charge predicted
       N       E                     dE             d eps       ncg     rms          rms(c)
DAV:   1    -0.381889712997E+02   -0.38249E-02   -0.38920E-01  9988   0.372E+00    0.464E-01
DAV:   2    -0.381866525506E+02    0.23187E-02   -0.19002E-02 11736   0.170E+00    0.255E-01
DAV:   3    -0.381855484476E+02    0.11041E-02   -0.25676E-03 12888   0.676E-01    0.114E-01
DAV:   4    -0.381852962980E+02    0.25215E-03   -0.77344E-04 11776   0.423E-01    0.226E-02
DAV:   5    -0.381853147570E+02   -0.18459E-04   -0.27126E-04 10676   0.200E-01    0.145E-02
DAV:   6    -0.381853168461E+02   -0.20891E-05   -0.37144E-05 12464   0.996E-02    0.903E-03
DAV:   7    -0.381853171399E+02   -0.29381E-06   -0.70549E-06 12208   0.468E-02    0.479E-03
DAV:   8    -0.381853173574E+02   -0.21750E-06   -0.23507E-06 12512   0.179E-02    0.137E-03
DAV:   9    -0.381853174079E+02   -0.50490E-07   -0.55570E-07 11424   0.851E-03    0.796E-04
DAV:  10    -0.381853174141E+02   -0.62382E-08   -0.12689E-07 13072   0.582E-03    0.432E-04
DAV:  11    -0.381853174148E+02   -0.63801E-09   -0.35533E-08  9316   0.313E-03
  11 F= -.38185317E+02 E0= -.38185311E+02  d E =-.785615E-03
 curvature:  -3.02 expect dE=-0.233E-02 dE for cont linesearch -0.268E-10
 trial: gam= 1.02293 g(F)=  0.558E-03 g(S)=  0.215E-03 ort = 0.160E-06 (trialstep = 0.497E+00)
 search vector abs. value=  0.379E-02
 bond charge predicted
       N       E                     dE             d eps       ncg     rms          rms(c)
DAV:   1    -0.381869539939E+02   -0.16366E-02   -0.15313E-01 10292   0.275E+00    0.317E-01
DAV:   2    -0.381860119469E+02    0.94205E-03   -0.12654E-02 11516   0.145E+00    0.147E-01
DAV:   3    -0.381857405861E+02    0.27136E-03   -0.12268E-03 13396   0.415E-01    0.740E-02
DAV:   4    -0.381856234336E+02    0.11715E-03   -0.24358E-04 13352   0.227E-01    0.180E-02
DAV:   5    -0.381856249222E+02   -0.14886E-05   -0.98278E-05 10720   0.100E-01    0.731E-03
DAV:   6    -0.381856257855E+02   -0.86329E-06   -0.12496E-05 13308   0.451E-02    0.465E-03
DAV:   7    -0.381856258652E+02   -0.79716E-07   -0.17049E-06 12224   0.308E-02    0.273E-03
DAV:   8    -0.381856260935E+02   -0.22832E-06   -0.81124E-07 13600   0.940E-03    0.121E-03
DAV:   9    -0.381856261128E+02   -0.19272E-07   -0.18738E-07 12712   0.637E-03    0.462E-04
DAV:  10    -0.381856261239E+02   -0.11094E-07   -0.75703E-08 13092   0.265E-03    0.293E-04
DAV:  11    -0.381856261257E+02   -0.17567E-08   -0.96683E-09  6380   0.163E-03
  12 F= -.38185626E+02 E0= -.38185620E+02  d E =-.308711E-03
 trial-energy change:   -0.000309  1 .order   -0.000306   -0.000384   -0.000228
 step:   1.0905(harm=  1.2212)  dis= 0.00352  next Energy=   -38.185766 (dE=-0.449E-03)
 bond charge predicted
       N       E                     dE             d eps       ncg     rms          rms(c)
DAV:   1    -0.381876644976E+02   -0.20384E-02   -0.21765E-01 10296   0.328E+00    0.378E-01
DAV:   2    -0.381863339106E+02    0.13306E-02   -0.17955E-02 11512   0.172E+00    0.176E-01
DAV:   3    -0.381859500800E+02    0.38383E-03   -0.17388E-03 13396   0.494E-01    0.881E-02
DAV:   4    -0.381857841557E+02    0.16592E-03   -0.34494E-04 13328   0.270E-01    0.214E-02
DAV:   5    -0.381857863510E+02   -0.21953E-05   -0.13927E-04 10716   0.119E-01    0.871E-03
DAV:   6    -0.381857875648E+02   -0.12138E-05   -0.17779E-05 13324   0.538E-02    0.554E-03
DAV:   7    -0.381857876675E+02   -0.10267E-06   -0.24301E-06 12228   0.368E-02    0.325E-03
DAV:   8    -0.381857879717E+02   -0.30422E-06   -0.11579E-06 13512   0.113E-02    0.144E-03
DAV:   9    -0.381857879928E+02   -0.21083E-07   -0.26948E-07 12700   0.769E-03    0.552E-04
DAV:  10    -0.381857880081E+02   -0.15309E-07   -0.10958E-07 13872   0.317E-03    0.353E-04
DAV:  11    -0.381857880101E+02   -0.19695E-08   -0.13584E-08  6976   0.194E-03
  13 F= -.38185788E+02 E0= -.38185782E+02  d E =-.470595E-03
 curvature:  -2.90 expect dE=-0.941E-03 dE for cont linesearch -0.535E-05
 ZBRENT: extrapolating
 opt :   1.2231  next Energy=   -38.185794 (dE=-0.476E-03)
 bond charge predicted
       N       E                     dE             d eps       ncg     rms          rms(c)
DAV:   1    -0.381858879095E+02   -0.99901E-04   -0.10854E-02 10296   0.729E-01    0.844E-02
DAV:   2    -0.381858219323E+02    0.65977E-04   -0.89359E-04 11532   0.385E-01    0.392E-02
DAV:   3    -0.381858024762E+02    0.19456E-04   -0.86721E-05 13424   0.111E-01    0.197E-02
DAV:   4    -0.381857941411E+02    0.83351E-05   -0.17247E-05 13340   0.607E-02    0.475E-03
DAV:   5    -0.381857941993E+02   -0.58261E-07   -0.69446E-06 10712   0.267E-02    0.194E-03
DAV:   6    -0.381857942782E+02   -0.78895E-07   -0.88039E-07 13332   0.120E-02    0.124E-03
DAV:   7    -0.381857942957E+02   -0.17435E-07   -0.11954E-07 11332   0.820E-03    0.726E-04
DAV:   8    -0.381857943320E+02   -0.36329E-07   -0.56980E-08 11200   0.253E-03    0.329E-04
DAV:   9    -0.381857943384E+02   -0.64083E-08   -0.13986E-08  6188   0.192E-03
  14 F= -.38185794E+02 E0= -.38185789E+02  d E =-.476924E-03
 curvature:  -3.00 expect dE=-0.118E-02 dE for cont linesearch -0.605E-08
 trial: gam= 0.50216 g(F)=  0.300E-03 g(S)=  0.946E-04 ort = 0.276E-05 (trialstep = 0.642E+00)
 search vector abs. value=  0.135E-02
 bond charge predicted
       N       E                     dE             d eps       ncg     rms          rms(c)
DAV:   1    -0.381864386271E+02   -0.64430E-03   -0.91366E-02 10012   0.176E+00    0.178E-01
DAV:   2    -0.381862102748E+02    0.22835E-03   -0.35396E-03 12352   0.661E-01    0.101E-01
DAV:   3    -0.381860319786E+02    0.17830E-03   -0.38684E-04 13672   0.316E-01    0.429E-02
DAV:   4    -0.381860007571E+02    0.31222E-04   -0.12524E-04 11704   0.181E-01    0.948E-03
DAV:   5    -0.381860040148E+02   -0.32577E-05   -0.44508E-05 10700   0.834E-02    0.591E-03
DAV:   6    -0.381860043022E+02   -0.28745E-06   -0.57168E-06 12396   0.395E-02    0.368E-03
DAV:   7    -0.381860043984E+02   -0.96181E-07   -0.11248E-06 11744   0.163E-02    0.170E-03
DAV:   8    -0.381860044695E+02   -0.71127E-07   -0.34444E-07 11484   0.761E-03    0.577E-04
DAV:   9    -0.381860044827E+02   -0.13160E-07   -0.84525E-08 10820   0.416E-03    0.290E-04
DAV:  10    -0.381860044885E+02   -0.58290E-08   -0.17166E-08  7728   0.211E-03
  15 F= -.38186004E+02 E0= -.38185999E+02  d E =-.210150E-03
 trial-energy change:   -0.000210  1 .order   -0.000206   -0.000255   -0.000157
 step:   1.3196(harm=  1.6820)  dis= 0.00294  next Energy=   -38.186092 (dE=-0.298E-03)
 bond charge predicted
       N       E                     dE             d eps       ncg     rms          rms(c)
DAV:   1    -0.381865998541E+02   -0.59537E-03   -0.10146E-01 10012   0.186E+00    0.188E-01
DAV:   2    -0.381863475699E+02    0.25228E-03   -0.39273E-03 12360   0.696E-01    0.107E-01
DAV:   3    -0.381861496900E+02    0.19788E-03   -0.42897E-04 13656   0.333E-01    0.451E-02
DAV:   4    -0.381861151623E+02    0.34528E-04   -0.13905E-04 11696   0.191E-01    0.998E-03
DAV:   5    -0.381861187843E+02   -0.36220E-05   -0.49417E-05 10704   0.876E-02    0.622E-03
DAV:   6    -0.381861190996E+02   -0.31529E-06   -0.63246E-06 12388   0.415E-02    0.387E-03
DAV:   7    -0.381861192037E+02   -0.10413E-06   -0.12468E-06 11772   0.171E-02    0.178E-03
DAV:   8    -0.381861192806E+02   -0.76830E-07   -0.38141E-07 11508   0.801E-03    0.608E-04
DAV:   9    -0.381861192946E+02   -0.14094E-07   -0.94265E-08 10956   0.439E-03    0.306E-04
DAV:  10    -0.381861193014E+02   -0.67389E-08   -0.19305E-08  7964   0.222E-03
  16 F= -.38186119E+02 E0= -.38186114E+02  d E =-.324963E-03
 curvature:  -2.52 expect dE=-0.562E-03 dE for cont linesearch -0.138E-04
 ZBRENT: increasing intervall
 opt :   2.6739  next Energy=   -38.186021 (dE=-0.226E-03)
 bond charge predicted
       N       E                     dE             d eps       ncg     rms          rms(c)
DAV:   1    -0.381879313770E+02   -0.18121E-02   -0.40582E-01 10008   0.372E+00    0.375E-01
DAV:   2    -0.381869284189E+02    0.10030E-02   -0.15712E-02 12304   0.139E+00    0.213E-01
DAV:   3    -0.381861406006E+02    0.78782E-03   -0.17353E-03 13680   0.666E-01    0.900E-02
DAV:   4    -0.381860034437E+02    0.13716E-03   -0.55538E-04 11640   0.381E-01    0.199E-02
DAV:   5    -0.381860178281E+02   -0.14384E-04   -0.19616E-04 10704   0.175E-01    0.124E-02
DAV:   6    -0.381860190298E+02   -0.12017E-05   -0.25462E-05 12420   0.847E-02    0.770E-03
DAV:   7    -0.381860193565E+02   -0.32675E-06   -0.49756E-06 11708   0.344E-02    0.357E-03
DAV:   8    -0.381860196013E+02   -0.24474E-06   -0.15286E-06 11524   0.161E-02    0.121E-03
DAV:   9    -0.381860196466E+02   -0.45323E-07   -0.37543E-07 11536   0.870E-03    0.611E-04
DAV:  10    -0.381860196658E+02   -0.19181E-07   -0.85400E-08 10876   0.450E-03    0.314E-04
DAV:  11    -0.381860196739E+02   -0.81122E-08   -0.22431E-08  7880   0.233E-03
  17 F= -.38186020E+02 E0= -.38186014E+02  d E =-.225335E-03
 curvature:  17.99 expect dE= 0.178E-01 dE for cont linesearch  0.722E-03
 ZBRENT: bracketing found
 ZBRENT: interpolating
 opt :   1.6850  next Energy=   -38.186135 (dE=-0.341E-03)
 bond charge predicted
       N       E                     dE             d eps       ncg     rms          rms(c)
DAV:   1    -0.381871557868E+02   -0.11361E-02   -0.21596E-01 10004   0.270E+00    0.273E-01
DAV:   2    -0.381866199195E+02    0.53587E-03   -0.82993E-03 12376   0.100E+00    0.156E-01
DAV:   3    -0.381862004026E+02    0.41952E-03   -0.90773E-04 13580   0.489E-01    0.659E-02
DAV:   4    -0.381861274109E+02    0.72992E-04   -0.29578E-04 11728   0.284E-01    0.146E-02
DAV:   5    -0.381861352359E+02   -0.78250E-05   -0.10631E-04 10640   0.127E-01    0.916E-03
DAV:   6    -0.381861357776E+02   -0.54166E-06   -0.13434E-05 12436   0.590E-02    0.569E-03
DAV:   7    -0.381861358331E+02   -0.55563E-07   -0.26534E-06 11808   0.250E-02    0.259E-03
DAV:   8    -0.381861358861E+02   -0.52961E-07   -0.80960E-07 11588   0.116E-02    0.911E-04
DAV:   9    -0.381861358941E+02   -0.80063E-08   -0.20303E-07 11448   0.657E-03    0.448E-04
DAV:  10    -0.381861358946E+02   -0.46794E-09   -0.46035E-08 10268   0.304E-03
  18 F= -.38186136E+02 E0= -.38186130E+02  d E =-.341556E-03
 curvature:  -0.39 expect dE=-0.131E-03 dE for cont linesearch -0.314E-09
 trial: gam= 0.84902 g(F)=  0.255E-03 g(S)=  0.790E-04 ort = 0.104E-05 (trialstep = 0.851E+00)
 search vector abs. value=  0.131E-02
 bond charge predicted
       N       E                     dE             d eps       ncg     rms          rms(c)
DAV:   1    -0.381873012151E+02   -0.11653E-02   -0.14636E-01  9912   0.231E+00    0.257E-01
DAV:   2    -0.381867270167E+02    0.57420E-03   -0.63458E-03 11880   0.107E+00    0.142E-01
DAV:   3    -0.381863841810E+02    0.34284E-03   -0.87559E-04 13324   0.472E-01    0.594E-02
DAV:   4    -0.381863253933E+02    0.58788E-04   -0.26941E-04 11744   0.261E-01    0.124E-02
DAV:   5    -0.381863318415E+02   -0.64481E-05   -0.85590E-05 10744   0.126E-01    0.781E-03
DAV:   6    -0.381863324027E+02   -0.56121E-06   -0.12767E-05 12332   0.637E-02    0.503E-03
DAV:   7    -0.381863325852E+02   -0.18248E-06   -0.27586E-06 13096   0.251E-02    0.195E-03
DAV:   8    -0.381863327106E+02   -0.12545E-06   -0.68989E-07 11704   0.106E-02    0.781E-04
DAV:   9    -0.381863327267E+02   -0.16082E-07   -0.14357E-07 11392   0.606E-03    0.430E-04
DAV:  10    -0.381863327394E+02   -0.12701E-07   -0.31261E-08  8820   0.265E-03    0.188E-04
DAV:  11    -0.381863327439E+02   -0.45384E-08   -0.85108E-09  6120   0.165E-03
  19 F= -.38186333E+02 E0= -.38186327E+02  d E =-.196849E-03
 trial-energy change:   -0.000197  1 .order   -0.000197   -0.000285   -0.000109
 step:   1.3774(harm=  1.3774)  dis= 0.00341  next Energy=   -38.186367 (dE=-0.231E-03)
 bond charge predicted
       N       E                     dE             d eps       ncg     rms          rms(c)
DAV:   1    -0.381867291464E+02   -0.39641E-03   -0.55960E-02  9912   0.143E+00    0.158E-01
DAV:   2    -0.381865102157E+02    0.21893E-03   -0.24167E-03 11912   0.663E-01    0.880E-02
DAV:   3    -0.381863786045E+02    0.13161E-03   -0.33417E-04 13272   0.293E-01    0.367E-02
DAV:   4    -0.381863562640E+02    0.22340E-04   -0.10358E-04 11720   0.163E-01    0.768E-03
DAV:   5    -0.381863587809E+02   -0.25169E-05   -0.33030E-05 10752   0.784E-02    0.483E-03
DAV:   6    -0.381863590144E+02   -0.23354E-06   -0.49681E-06 12324   0.397E-02    0.311E-03
DAV:   7    -0.381863591032E+02   -0.88819E-07   -0.10809E-06 13160   0.157E-02    0.120E-03
DAV:   8    -0.381863591630E+02   -0.59748E-07   -0.26665E-07 11660   0.664E-03    0.483E-04
DAV:   9    -0.381863591715E+02   -0.85056E-08   -0.55523E-08 10040   0.384E-03
  20 F= -.38186359E+02 E0= -.38186354E+02  d E =-.223277E-03
 curvature:  -2.70 expect dE=-0.359E-03 dE for cont linesearch -0.258E-08
 trial: gam= 0.39869 g(F)=  0.128E-03 g(S)=  0.488E-05 ort =-0.112E-05 (trialstep = 0.956E+00)
 search vector abs. value=  0.341E-03
 bond charge predicted
       N       E                     dE             d eps       ncg     rms          rms(c)
DAV:   1    -0.381866205406E+02   -0.26138E-03   -0.54623E-02  9864   0.131E+00    0.115E-01
DAV:   2    -0.381865385576E+02    0.81983E-04   -0.13735E-03 11416   0.437E-01    0.670E-02
DAV:   3    -0.381864539193E+02    0.84638E-04   -0.21188E-04 12196   0.289E-01    0.267E-02
DAV:   4    -0.381864468878E+02    0.70316E-05   -0.72258E-05 11012   0.160E-01    0.550E-03
DAV:   5    -0.381864488851E+02   -0.19973E-05   -0.24098E-05 11388   0.499E-02    0.477E-03
DAV:   6    -0.381864489117E+02   -0.26602E-07   -0.29781E-06 13492   0.363E-02    0.256E-03
DAV:   7    -0.381864489479E+02   -0.36186E-07   -0.71954E-07 14020   0.114E-02    0.112E-03
DAV:   8    -0.381864489739E+02   -0.26003E-07   -0.14874E-07 10796   0.395E-03    0.391E-04
DAV:   9    -0.381864489749E+02   -0.10568E-08   -0.31017E-08  7644   0.317E-03
  21 F= -.38186449E+02 E0= -.38186443E+02  d E =-.898034E-04
 trial-energy change:   -0.000090  1 .order   -0.000089   -0.000127   -0.000051
 step:   1.5510(harm=  1.6052)  dis= 0.00204  next Energy=   -38.186465 (dE=-0.106E-03)
 bond charge predicted
       N       E                     dE             d eps       ncg     rms          rms(c)
DAV:   1    -0.381865328440E+02   -0.83870E-04   -0.21125E-02  9876   0.814E-01    0.713E-02
DAV:   2    -0.381865012847E+02    0.31559E-04   -0.53070E-04 11440   0.272E-01    0.417E-02
DAV:   3    -0.381864685693E+02    0.32715E-04   -0.82099E-05 12196   0.181E-01    0.166E-02
DAV:   4    -0.381864658590E+02    0.27103E-05   -0.27961E-05 11012   0.100E-01    0.341E-03
DAV:   5    -0.381864666397E+02   -0.78068E-06   -0.93625E-06 11380   0.309E-02    0.297E-03
DAV:   6    -0.381864666542E+02   -0.14554E-07   -0.11444E-06 13580   0.225E-02    0.160E-03
DAV:   7    -0.381864666707E+02   -0.16452E-07   -0.27559E-07 13968   0.696E-03    0.701E-04
DAV:   8    -0.381864666832E+02   -0.12513E-07   -0.57207E-08 10744   0.244E-03    0.244E-04
DAV:   9    -0.381864666833E+02   -0.92768E-10   -0.11541E-08  6480   0.195E-03
  22 F= -.38186467E+02 E0= -.38186461E+02  d E =-.107512E-03
 curvature:  -2.05 expect dE=-0.250E-03 dE for cont linesearch -0.130E-06
 trial: gam= 0.87675 g(F)=  0.104E-03 g(S)=  0.182E-04 ort = 0.465E-05 (trialstep = 0.934E+00)
 search vector abs. value=  0.392E-03
 bond charge predicted
       N       E                     dE             d eps       ncg     rms          rms(c)
DAV:   1    -0.381865859386E+02   -0.11926E-03   -0.72966E-02  9856   0.150E+00    0.101E-01
DAV:   2    -0.381866010971E+02   -0.15159E-04   -0.20466E-03 12060   0.485E-01    0.480E-02
DAV:   3    -0.381865772592E+02    0.23838E-04   -0.17298E-04 12040   0.148E-01    0.261E-02
DAV:   4    -0.381865652845E+02    0.11975E-04   -0.39138E-05 12588   0.834E-02    0.695E-03
DAV:   5    -0.381865656082E+02   -0.32363E-06   -0.12883E-05 10840   0.425E-02    0.307E-03
DAV:   6    -0.381865657271E+02   -0.11892E-06   -0.20460E-06 12536   0.248E-02    0.204E-03
DAV:   7    -0.381865657462E+02   -0.19133E-07   -0.34015E-07 12512   0.115E-02    0.112E-03
DAV:   8    -0.381865657857E+02   -0.39456E-07   -0.14253E-07 13392   0.329E-03    0.338E-04
DAV:   9    -0.381865657922E+02   -0.65061E-08   -0.21856E-08  6668   0.153E-03
  23 F= -.38186566E+02 E0= -.38186560E+02  d E =-.991089E-04
 trial-energy change:   -0.000099  1 .order   -0.000092   -0.000118   -0.000066
 step:   1.4504(harm=  2.1169)  dis= 0.00204  next Energy=   -38.186585 (dE=-0.119E-03)
 bond charge predicted
       N       E                     dE             d eps       ncg     rms          rms(c)
DAV:   1    -0.381866004580E+02   -0.34672E-04   -0.22301E-02  9864   0.828E-01    0.558E-02
DAV:   2    -0.381866051766E+02   -0.47186E-05   -0.62403E-04 12076   0.267E-01    0.266E-02
DAV:   3    -0.381865977265E+02    0.74501E-05   -0.52736E-05 12032   0.813E-02    0.144E-02
DAV:   4    -0.381865940073E+02    0.37192E-05   -0.11928E-05 12568   0.470E-02    0.384E-03
DAV:   5    -0.381865940923E+02   -0.85005E-07   -0.39243E-06 10864   0.237E-02    0.170E-03
DAV:   6    -0.381865941365E+02   -0.44144E-07   -0.64569E-07 12528   0.137E-02    0.113E-03
DAV:   7    -0.381865941456E+02   -0.91409E-08   -0.10404E-07 10820   0.662E-03    0.624E-04
DAV:   8    -0.381865941654E+02   -0.19818E-07   -0.43768E-08 10112   0.188E-03    0.187E-04
DAV:   9    -0.381865941689E+02   -0.35079E-08   -0.98081E-09  6116   0.113E-03
  24 F= -.38186594E+02 E0= -.38186588E+02  d E =-.127486E-03
 curvature:  -2.24 expect dE=-0.992E-04 dE for cont linesearch -0.871E-05
 ZBRENT: increasing intervall
 opt :   2.4832  next Energy=   -38.186602 (dE=-0.135E-03)
 bond charge predicted
       N       E                     dE             d eps       ncg     rms          rms(c)
DAV:   1    -0.381866263490E+02   -0.32184E-04   -0.89232E-02  9856   0.166E+00    0.112E-01
DAV:   2    -0.381866452904E+02   -0.18941E-04   -0.25025E-03 12076   0.536E-01    0.532E-02
DAV:   3    -0.381866162287E+02    0.29062E-04   -0.21146E-04 12032   0.163E-01    0.288E-02
DAV:   4    -0.381866016199E+02    0.14609E-04   -0.47859E-05 12564   0.928E-02    0.769E-03
DAV:   5    -0.381866020211E+02   -0.40121E-06   -0.15737E-05 10848   0.471E-02    0.339E-03
DAV:   6    -0.381866021676E+02   -0.14655E-06   -0.25395E-06 12544   0.274E-02    0.226E-03
DAV:   7    -0.381866021893E+02   -0.21676E-07   -0.42103E-07 12764   0.129E-02    0.124E-03
DAV:   8    -0.381866022341E+02   -0.44764E-07   -0.17535E-07 13692   0.370E-03    0.375E-04
DAV:   9    -0.381866022418E+02   -0.77707E-08   -0.28420E-08  7324   0.183E-03
  25 F= -.38186602E+02 E0= -.38186596E+02  d E =-.135559E-03
 curvature:  -1.99 expect dE=-0.230E-03 dE for cont linesearch -0.286E-05
 ZBRENT: bracketing found
 ZBRENT: interpolating
 opt :   2.0924  next Energy=   -38.186607 (dE=-0.140E-03)
 bond charge predicted
       N       E                     dE             d eps       ncg     rms          rms(c)
DAV:   1    -0.381866102307E+02   -0.79966E-05   -0.12767E-02  9856   0.626E-01    0.422E-02
DAV:   2    -0.381866125227E+02   -0.22921E-05   -0.35687E-04 12084   0.201E-01    0.201E-02
DAV:   3    -0.381866087111E+02    0.38116E-05   -0.29971E-05 12052   0.612E-02    0.109E-02
DAV:   4    -0.381866067735E+02    0.19376E-05   -0.67838E-06 12612   0.349E-02    0.290E-03
DAV:   5    -0.381866068630E+02   -0.89452E-07   -0.22484E-06 10840   0.180E-02    0.128E-03
DAV:   6    -0.381866068702E+02   -0.72919E-08   -0.35255E-07 12468   0.101E-02    0.863E-04
DAV:   7    -0.381866068642E+02    0.60481E-08   -0.56566E-08  9020   0.461E-03
  26 F= -.38186607E+02 E0= -.38186601E+02  d E =-.140181E-03
 curvature:  -3.23 expect dE=-0.244E-03 dE for cont linesearch -0.857E-08
 trial: gam= 0.69227 g(F)=  0.648E-04 g(S)=  0.108E-04 ort = 0.102E-05 (trialstep = 0.117E+01)
 search vector abs. value=  0.265E-03
 bond charge predicted
       N       E                     dE             d eps       ncg     rms          rms(c)
DAV:   1    -0.381866357505E+02   -0.28880E-04   -0.78719E-02  9856   0.148E+00    0.770E-02
DAV:   2    -0.381867028437E+02   -0.67093E-04   -0.15707E-03 12520   0.365E-01    0.419E-02
DAV:   3    -0.381866819663E+02    0.20877E-04   -0.10034E-04 11612   0.149E-01    0.221E-02
DAV:   4    -0.381866744692E+02    0.74971E-05   -0.26355E-05 12844   0.108E-01    0.532E-03
DAV:   5    -0.381866749736E+02   -0.50442E-06   -0.96048E-06 10756   0.469E-02    0.248E-03
DAV:   6    -0.381866751054E+02   -0.13176E-06   -0.19110E-06 12348   0.164E-02    0.178E-03
DAV:   7    -0.381866751202E+02   -0.14808E-07   -0.25106E-07 12572   0.113E-02    0.868E-04
DAV:   8    -0.381866751368E+02   -0.16643E-07   -0.92011E-08 12616   0.329E-03    0.268E-04
DAV:   9    -0.381866751402E+02   -0.33519E-08   -0.12354E-08  6232   0.150E-03
  27 F= -.38186675E+02 E0= -.38186669E+02  d E =-.682760E-04
 trial-energy change:   -0.000068  1 .order   -0.000069   -0.000089   -0.000049
 step:   2.8402(harm=  2.5669)  dis= 0.00316  next Energy=   -38.186709 (dE=-0.102E-03)
 bond charge predicted
       N       E                     dE             d eps       ncg     rms          rms(c)
DAV:   1    -0.381866216769E+02    0.53460E-04   -0.16248E-01  9856   0.213E+00    0.111E-01
DAV:   2    -0.381867604858E+02   -0.13881E-03   -0.32438E-03 12504   0.525E-01    0.602E-02
DAV:   3    -0.381867178044E+02    0.42681E-04   -0.20854E-04 11640   0.215E-01    0.317E-02
DAV:   4    -0.381867023845E+02    0.15420E-04   -0.54423E-05 12792   0.155E-01    0.764E-03
DAV:   5    -0.381867034535E+02   -0.10690E-05   -0.19834E-05 10764   0.673E-02    0.358E-03
DAV:   6    -0.381867037242E+02   -0.27068E-06   -0.39375E-06 12384   0.238E-02    0.256E-03
DAV:   7    -0.381867037478E+02   -0.23610E-07   -0.52865E-07 12652   0.163E-02    0.126E-03
DAV:   8    -0.381867037796E+02   -0.31775E-07   -0.19849E-07 13900   0.479E-03    0.388E-04
DAV:   9    -0.381867037847E+02   -0.51123E-08   -0.24910E-08  7236   0.217E-03
  28 F= -.38186704E+02 E0= -.38186697E+02  d E =-.969205E-04
 curvature:  -4.29 expect dE=-0.461E-03 dE for cont linesearch -0.810E-06
 trial: gam= 1.47366 g(F)=  0.942E-04 g(S)=  0.132E-04 ort =-0.707E-05 (trialstep = 0.601E+00)
 search vector abs. value=  0.662E-03
 bond charge predicted
       N       E                     dE             d eps       ncg     rms          rms(c)
DAV:   1    -0.381867264288E+02   -0.22649E-04   -0.51393E-02  9856   0.120E+00    0.623E-02
DAV:   2    -0.381867718858E+02   -0.45457E-04   -0.97556E-04 12792   0.285E-01    0.364E-02
DAV:   3    -0.381867534933E+02    0.18392E-04   -0.67375E-05 12400   0.152E-01    0.175E-02
DAV:   4    -0.381867490012E+02    0.44921E-05   -0.19394E-05 12380   0.939E-02    0.372E-03
DAV:   5    -0.381867495785E+02   -0.57723E-06   -0.74129E-06 11272   0.308E-02    0.235E-03
DAV:   6    -0.381867496347E+02   -0.56251E-07   -0.95239E-07 12000   0.151E-02    0.142E-03
DAV:   7    -0.381867496542E+02   -0.19444E-07   -0.21082E-07 13816   0.886E-03    0.711E-04
DAV:   8    -0.381867496663E+02   -0.12097E-07   -0.67834E-08 10696   0.484E-03    0.261E-04
DAV:   9    -0.381867496654E+02    0.85811E-09   -0.20002E-08  6376   0.140E-03
  29 F= -.38186750E+02 E0= -.38186743E+02  d E =-.458807E-04
 trial-energy change:   -0.000046  1 .order   -0.000046   -0.000058   -0.000033
 step:   1.4032(harm=  1.4032)  dis= 0.00273  next Energy=   -38.186772 (dE=-0.681E-04)
 bond charge predicted
       N       E                     dE             d eps       ncg     rms          rms(c)
DAV:   1    -0.381867338956E+02    0.15771E-04   -0.91787E-02  9860   0.161E+00    0.832E-02
DAV:   2    -0.381868150388E+02   -0.81143E-04   -0.17424E-03 12768   0.382E-01    0.487E-02
DAV:   3    -0.381867823241E+02    0.32715E-04   -0.12101E-04 12392   0.203E-01    0.235E-02
DAV:   4    -0.381867743064E+02    0.80176E-05   -0.34761E-05 12436   0.125E-01    0.499E-03
DAV:   5    -0.381867753220E+02   -0.10155E-05   -0.13203E-05 11244   0.412E-02    0.314E-03
DAV:   6    -0.381867754185E+02   -0.96513E-07   -0.16958E-06 11968   0.202E-02    0.190E-03
DAV:   7    -0.381867754489E+02   -0.30433E-07   -0.37393E-07 13788   0.119E-02    0.951E-04
DAV:   8    -0.381867754664E+02   -0.17494E-07   -0.12439E-07 12348   0.644E-03    0.346E-04
DAV:   9    -0.381867754664E+02    0.22737E-11   -0.41216E-08  9500   0.177E-03
  30 F= -.38186775E+02 E0= -.38186769E+02  d E =-.716817E-04
 curvature:  -4.79 expect dE=-0.371E-03 dE for cont linesearch -0.119E-09
 trial: gam= 0.54163 g(F)=  0.666E-04 g(S)=  0.109E-04 ort = 0.128E-06 (trialstep = 0.761E+00)
 search vector abs. value=  0.272E-03
 bond charge predicted
       N       E                     dE             d eps       ncg     rms          rms(c)
DAV:   1    -0.381868219888E+02   -0.46522E-04   -0.32418E-02  9932   0.101E+00    0.649E-02
DAV:   2    -0.381868328284E+02   -0.10840E-04   -0.79688E-04 11728   0.291E-01    0.357E-02
DAV:   3    -0.381868189316E+02    0.13897E-04   -0.67591E-05 12532   0.965E-02    0.175E-02
DAV:   4    -0.381868138821E+02    0.50496E-05   -0.14276E-05 12236   0.478E-02    0.325E-03
DAV:   5    -0.381868142564E+02   -0.37431E-06   -0.50805E-06 11020   0.192E-02    0.185E-03
DAV:   6    -0.381868142431E+02    0.13346E-07   -0.28730E-07 12796   0.749E-03    0.122E-03
DAV:   7    -0.381868142162E+02    0.26879E-07   -0.87045E-08 12764   0.601E-03    0.542E-04
DAV:   8    -0.381868142006E+02    0.15604E-07   -0.20416E-08  6512   0.334E-03    0.235E-04
DAV:   9    -0.381868141998E+02    0.81445E-09   -0.20666E-08  7984   0.935E-04
  31 F= -.38186814E+02 E0= -.38186808E+02  d E =-.387333E-04
 trial-energy change:   -0.000039  1 .order   -0.000039   -0.000059   -0.000019
 step:   1.1526(harm=  1.1229)  dis= 0.00143  next Energy=   -38.186819 (dE=-0.436E-04)
 bond charge predicted
       N       E                     dE             d eps       ncg     rms          rms(c)
DAV:   1    -0.381868219849E+02   -0.77843E-05   -0.85776E-03  9932   0.520E-01    0.334E-02
DAV:   2    -0.381868247639E+02   -0.27790E-05   -0.21128E-04 11720   0.150E-01    0.184E-02
DAV:   3    -0.381868211803E+02    0.35836E-05   -0.17982E-05 12528   0.498E-02    0.902E-03
DAV:   4    -0.381868198475E+02    0.13328E-05   -0.38034E-06 12284   0.248E-02    0.167E-03
DAV:   5    -0.381868199487E+02   -0.10115E-06   -0.13435E-06 11008   0.102E-02    0.954E-04
DAV:   6    -0.381868199413E+02    0.73533E-08   -0.87798E-08 12120   0.423E-03
  32 F= -.38186820E+02 E0= -.38186813E+02  d E =-.444749E-04
 curvature:  -1.95 expect dE=-0.810E-04 dE for cont linesearch -0.572E-07
 trial: gam= 0.59869 g(F)=  0.323E-04 g(S)=  0.919E-05 ort =-0.282E-05 (trialstep = 0.839E+00)
 search vector abs. value=  0.136E-03
 bond charge predicted
       N       E                     dE             d eps       ncg     rms          rms(c)
DAV:   1    -0.381868660859E+02   -0.46137E-04   -0.18106E-02  9976   0.764E-01    0.535E-02
DAV:   2    -0.381868633124E+02    0.27736E-05   -0.42394E-04 12064   0.207E-01    0.309E-02
DAV:   3    -0.381868493895E+02    0.13923E-04   -0.41535E-05 11996   0.920E-02    0.129E-02
DAV:   4    -0.381868470340E+02    0.23555E-05   -0.12144E-05 11404   0.600E-02    0.258E-03
DAV:   5    -0.381868473797E+02   -0.34571E-06   -0.43390E-06 11376   0.274E-02    0.170E-03
DAV:   6    -0.381868474292E+02   -0.49506E-07   -0.77631E-07 12164   0.149E-02    0.120E-03
DAV:   7    -0.381868474357E+02   -0.64574E-08   -0.16879E-07 13604   0.624E-03    0.671E-04
DAV:   8    -0.381868474376E+02   -0.19218E-08   -0.37742E-08  9068   0.242E-03
  33 F= -.38186847E+02 E0= -.38186841E+02  d E =-.274963E-04
 trial-energy change:   -0.000027  1 .order   -0.000025   -0.000033   -0.000017
 step:   1.2330(harm=  1.7159)  dis= 0.00109  next Energy=   -38.186852 (dE=-0.317E-04)
 bond charge predicted
       N       E                     dE             d eps       ncg     rms          rms(c)
DAV:   1    -0.381868576463E+02   -0.10211E-04   -0.39799E-03  9984   0.358E-01    0.251E-02
DAV:   2    -0.381868569927E+02    0.65360E-06   -0.93328E-05 12072   0.966E-02    0.145E-02
DAV:   3    -0.381868539730E+02    0.30196E-05   -0.90766E-06 11960   0.419E-02    0.606E-03
DAV:   4    -0.381868534613E+02    0.51177E-06   -0.26557E-06 11408   0.274E-02    0.121E-03
DAV:   5    -0.381868535404E+02   -0.79097E-07   -0.94267E-07 11432   0.127E-02    0.793E-04
DAV:   6    -0.381868535515E+02   -0.11163E-07   -0.16523E-07 11436   0.691E-03    0.563E-04
DAV:   7    -0.381868535516E+02   -0.89130E-10   -0.30237E-08  8000   0.296E-03
  34 F= -.38186854E+02 E0= -.38186847E+02  d E =-.336103E-04
 curvature:  -2.04 expect dE=-0.333E-04 dE for cont linesearch -0.160E-05
 ZBRENT: increasing intervall
 opt :   2.0201  next Energy=   -38.186854 (dE=-0.339E-04)
 bond charge predicted
       N       E                     dE             d eps       ncg     rms          rms(c)
DAV:   1    -0.381868712023E+02   -0.17651E-04   -0.15923E-02  9980   0.716E-01    0.502E-02
DAV:   2    -0.381868687191E+02    0.24832E-05   -0.37335E-04 12080   0.193E-01    0.289E-02
DAV:   3    -0.381868564592E+02    0.12260E-04   -0.36121E-05 11948   0.830E-02    0.121E-02
DAV:   4    -0.381868543777E+02    0.20814E-05   -0.10557E-05 11412   0.544E-02    0.238E-03
DAV:   5    -0.381868546784E+02   -0.30072E-06   -0.37563E-06 11460   0.252E-02    0.158E-03
DAV:   6    -0.381868547185E+02   -0.40036E-07   -0.65107E-07 12168   0.136E-02    0.112E-03
DAV:   7    -0.381868547232E+02   -0.46784E-08   -0.13956E-07 12700   0.596E-03    0.623E-04
DAV:   8    -0.381868547253E+02   -0.21741E-08   -0.36216E-08  8780   0.244E-03
  35 F= -.38186855E+02 E0= -.38186848E+02  d E =-.347840E-04
 curvature:  -0.31 expect dE=-0.105E-04 dE for cont linesearch -0.141E-06
 ZBRENT: bracketing found
 ZBRENT: interpolating
 opt :   1.6788  next Energy=   -38.186856 (dE=-0.361E-04)
 bond charge predicted
       N       E                     dE             d eps       ncg     rms          rms(c)
DAV:   1    -0.381868591692E+02   -0.44460E-05   -0.29923E-03  9980   0.311E-01    0.218E-02
DAV:   2    -0.381868587920E+02    0.37719E-06   -0.70252E-05 12064   0.840E-02    0.125E-02
DAV:   3    -0.381868563868E+02    0.24052E-05   -0.67684E-06 11920   0.361E-02    0.527E-03
DAV:   4    -0.381868559696E+02    0.41715E-06   -0.19807E-06 11476   0.235E-02    0.102E-03
DAV:   5    -0.381868560148E+02   -0.45140E-07   -0.70137E-07 11400   0.108E-02    0.678E-04
DAV:   6    -0.381868560209E+02   -0.60954E-08   -0.11877E-07 11036   0.586E-03    0.481E-04
DAV:   7    -0.381868560228E+02   -0.19281E-08   -0.21792E-08  7792   0.257E-03
  36 F= -.38186856E+02 E0= -.38186850E+02  d E =-.360815E-04
 curvature:  -2.93 expect dE=-0.685E-04 dE for cont linesearch -0.189E-07
 trial: gam= 0.48937 g(F)=  0.214E-04 g(S)=  0.200E-05 ort = 0.936E-06 (trialstep = 0.101E+01)
 search vector abs. value=  0.568E-04
 bond charge predicted
       N       E                     dE             d eps       ncg     rms          rms(c)
DAV:   1    -0.381868696731E+02   -0.13652E-04   -0.10706E-02  9908   0.607E-01    0.442E-02
DAV:   2    -0.381868773160E+02   -0.76429E-05   -0.41023E-04 12200   0.211E-01    0.220E-02
DAV:   3    -0.381868718642E+02    0.54518E-05   -0.33857E-05 11804   0.668E-02    0.120E-02
DAV:   4    -0.381868694539E+02    0.24103E-05   -0.76298E-06 12584   0.401E-02    0.242E-03
DAV:   5    -0.381868696195E+02   -0.16557E-06   -0.26825E-06 10744   0.174E-02    0.128E-03
DAV:   6    -0.381868696146E+02    0.48421E-08   -0.33281E-07 13688   0.699E-03    0.751E-04
DAV:   7    -0.381868696054E+02    0.92723E-08   -0.50165E-08  9280   0.464E-03
  37 F= -.38186870E+02 E0= -.38186863E+02  d E =-.135826E-04
 trial-energy change:   -0.000014  1 .order   -0.000014   -0.000024   -0.000004
 step:   1.2263(harm=  1.1988)  dis= 0.00083  next Energy=   -38.186870 (dE=-0.140E-04)
 bond charge predicted
       N       E                     dE             d eps       ncg     rms          rms(c)
DAV:   1    -0.381868700341E+02   -0.41941E-06   -0.50798E-04  9952   0.132E-01    0.963E-03
DAV:   2    -0.381868703360E+02   -0.30195E-06   -0.19573E-05 12208   0.461E-02    0.479E-03
DAV:   3    -0.381868701050E+02    0.23102E-06   -0.16366E-06 11812   0.143E-02    0.262E-03
DAV:   4    -0.381868699889E+02    0.11613E-06   -0.36038E-07 12564   0.866E-03    0.536E-04
DAV:   5    -0.381868699982E+02   -0.93046E-08   -0.12898E-07 10744   0.378E-03    0.285E-04
DAV:   6    -0.381868699943E+02    0.39067E-08   -0.13491E-08  6888   0.152E-03
  38 F= -.38186870E+02 E0= -.38186864E+02  d E =-.139715E-04
 curvature:  -1.40 expect dE=-0.126E-04 dE for cont linesearch -0.466E-09
 trial: gam= 0.39984 g(F)=  0.763E-05 g(S)=  0.137E-05 ort =-0.138E-06 (trialstep = 0.105E+01)
 search vector abs. value=  0.180E-04
 bond charge predicted
       N       E                     dE             d eps       ncg     rms          rms(c)
DAV:   1    -0.381868757681E+02   -0.57700E-05   -0.37369E-03 10064   0.354E-01    0.239E-02
DAV:   2    -0.381868796358E+02   -0.38677E-05   -0.12981E-04 12040   0.115E-01    0.134E-02
DAV:   3    -0.381868775769E+02    0.20589E-05   -0.11366E-05 12688   0.408E-02    0.673E-03
DAV:   4    -0.381868768144E+02    0.76250E-06   -0.26159E-06 12284   0.244E-02    0.138E-03
DAV:   5    -0.381868768680E+02   -0.53571E-07   -0.81197E-07 10740   0.992E-03    0.724E-04
DAV:   6    -0.381868768767E+02   -0.86848E-08   -0.10889E-07 11536   0.538E-03    0.464E-04
DAV:   7    -0.381868768822E+02   -0.55079E-08   -0.16514E-08  6996   0.326E-03
  39 F= -.38186877E+02 E0= -.38186871E+02  d E =-.688796E-05
 trial-energy change:   -0.000007  1 .order   -0.000007   -0.000009   -0.000004
 step:   1.7912(harm=  1.9071)  dis= 0.00051  next Energy=   -38.186878 (dE=-0.840E-05)
 bond charge predicted
       N       E                     dE             d eps       ncg     rms          rms(c)
DAV:   1    -0.381868782473E+02   -0.13706E-05   -0.18542E-03 10072   0.249E-01    0.168E-02
DAV:   2    -0.381868801635E+02   -0.19163E-05   -0.64335E-05 12032   0.811E-02    0.947E-03
DAV:   3    -0.381868790921E+02    0.10714E-05   -0.56558E-06 12700   0.285E-02    0.474E-03
DAV:   4    -0.381868787055E+02    0.38658E-06   -0.12944E-06 12284   0.171E-02    0.974E-04
DAV:   5    -0.381868787322E+02   -0.26704E-07   -0.40162E-07 10740   0.693E-03    0.513E-04
DAV:   6    -0.381868787367E+02   -0.45220E-08   -0.51230E-08  9440   0.372E-03
  40 F= -.38186879E+02 E0= -.38186873E+02  d E =-.874249E-05
 curvature:  -1.88 expect dE=-0.206E-04 dE for cont linesearch -0.412E-07
 trial: gam= 1.14888 g(F)=  0.754E-05 g(S)=  0.341E-05 ort = 0.628E-06 (trialstep = 0.597E+00)
 search vector abs. value=  0.361E-04
 bond charge predicted
       N       E                     dE             d eps       ncg     rms          rms(c)
DAV:   1    -0.381868830419E+02   -0.43097E-05   -0.24797E-03 10064   0.300E-01    0.218E-02
DAV:   2    -0.381868844022E+02   -0.13603E-05   -0.10052E-04 11896   0.107E-01    0.113E-02
DAV:   3    -0.381868832617E+02    0.11405E-05   -0.78381E-06 13200   0.364E-02    0.578E-03
DAV:   4    -0.381868827619E+02    0.49974E-06   -0.18734E-06 12372   0.201E-02    0.125E-03
DAV:   5    -0.381868828100E+02   -0.48117E-07   -0.59195E-07 10744   0.103E-02    0.587E-04
DAV:   6    -0.381868828128E+02   -0.27217E-08   -0.10118E-07 11428   0.505E-03    0.408E-04
DAV:   7    -0.381868828076E+02    0.51205E-08   -0.13858E-08  6348   0.256E-03
  41 F= -.38186883E+02 E0= -.38186877E+02  d E =-.407089E-05
 trial-energy change:   -0.000004  1 .order   -0.000006   -0.000007   -0.000004
 step:   1.4667(harm=  1.4667)  dis= 0.00044  next Energy=   -38.186887 (dE=-0.856E-05)
 bond charge predicted
       N       E                     dE             d eps       ncg     rms          rms(c)
DAV:   1    -0.381868833020E+02   -0.48921E-06   -0.52718E-03 10064   0.437E-01    0.318E-02
DAV:   2    -0.381868862317E+02   -0.29298E-05   -0.21357E-04 11888   0.156E-01    0.165E-02
DAV:   3    -0.381868836827E+02    0.25491E-05   -0.16751E-05 13228   0.542E-02    0.843E-03
DAV:   4    -0.381868825699E+02    0.11127E-05   -0.40480E-06 12348   0.297E-02    0.182E-03
DAV:   5    -0.381868826602E+02   -0.90216E-07   -0.12751E-06 10744   0.153E-02    0.856E-04
DAV:   6    -0.381868826689E+02   -0.87084E-08   -0.22046E-07 12404   0.747E-03    0.593E-04
DAV:   7    -0.381868826620E+02    0.68785E-08   -0.33328E-08  8984   0.368E-03
  42 F= -.38186883E+02 E0= -.38186876E+02  d E =-.392524E-05
 curvature:  -2.27 expect dE=-0.162E-04 dE for cont linesearch -0.507E-09
 trial: gam= 0.78125 g(F)=  0.637E-05 g(S)=  0.764E-06 ort = 0.898E-07 (trialstep = 0.771E+00)
 search vector abs. value=  0.293E-04
 bond charge predicted
       N       E                     dE             d eps       ncg     rms          rms(c)
DAV:   1    -0.381868832741E+02   -0.60525E-06   -0.35243E-03  9912   0.340E-01    0.186E-02
DAV:   2    -0.381868878891E+02   -0.46150E-05   -0.10840E-04 11784   0.950E-02    0.959E-03
DAV:   3    -0.381868872914E+02    0.59773E-06   -0.73412E-06 12096   0.316E-02    0.526E-03
DAV:   4    -0.381868868973E+02    0.39412E-06   -0.16841E-06 12280   0.257E-02    0.148E-03
DAV:   5    -0.381868869582E+02   -0.60948E-07   -0.62687E-07 10904   0.112E-02    0.671E-04
DAV:   6    -0.381868869723E+02   -0.14089E-07   -0.13636E-07 12024   0.450E-03    0.411E-04
DAV:   7    -0.381868869702E+02    0.21200E-08   -0.14248E-08  6316   0.328E-03
  43 F= -.38186887E+02 E0= -.38186881E+02  d E =-.430820E-05
 trial-energy change:   -0.000004  1 .order   -0.000004   -0.000006   -0.000003
 step:   1.2257(harm=  1.5030)  dis= 0.00055  next Energy=   -38.186888 (dE=-0.514E-05)
 bond charge predicted
       N       E                     dE             d eps       ncg     rms          rms(c)
DAV:   1    -0.381868868940E+02    0.78281E-07   -0.12298E-03  9920   0.201E-01    0.110E-02
DAV:   2    -0.381868884838E+02   -0.15898E-05   -0.37849E-05 11752   0.564E-02    0.567E-03
DAV:   3    -0.381868883029E+02    0.18092E-06   -0.25854E-06 11976   0.192E-02    0.311E-03
DAV:   4    -0.381868881784E+02    0.12455E-06   -0.61044E-07 12280   0.158E-02    0.877E-04
DAV:   5    -0.381868882076E+02   -0.29193E-07   -0.22849E-07 11120   0.689E-03    0.398E-04
DAV:   6    -0.381868882143E+02   -0.67703E-08   -0.48966E-08  9080   0.266E-03
  44 F= -.38186888E+02 E0= -.38186882E+02  d E =-.555236E-05
 curvature:  -2.62 expect dE=-0.663E-05 dE for cont linesearch -0.185E-06
 ZBRENT: increasing intervall
 opt :   2.1357  next Energy=   -38.186888 (dE=-0.498E-05)
 bond charge predicted
       N       E                     dE             d eps       ncg     rms          rms(c)
DAV:   1    -0.381868826047E+02    0.56029E-05   -0.49129E-03  9912   0.401E-01    0.220E-02
DAV:   2    -0.381868890922E+02   -0.64875E-05   -0.15138E-04 11784   0.113E-01    0.113E-02
DAV:   3    -0.381868882449E+02    0.84731E-06   -0.10263E-05 12044   0.380E-02    0.622E-03
DAV:   4    -0.381868876916E+02    0.55328E-06   -0.23812E-06 12264   0.310E-02    0.174E-03
DAV:   5    -0.381868877700E+02   -0.78331E-07   -0.88381E-07 11008   0.136E-02    0.786E-04
DAV:   6    -0.381868877896E+02   -0.19637E-07   -0.19935E-07 12512   0.531E-03    0.484E-04
DAV:   7    -0.381868877878E+02    0.17985E-08   -0.20312E-08  7040   0.384E-03
  45 F= -.38186888E+02 E0= -.38186882E+02  d E =-.512582E-05
 curvature:   8.16 expect dE= 0.611E-04 dE for cont linesearch  0.242E-05
 ZBRENT: bracketing found
 ZBRENT: interpolating
 opt :   1.5240  next Energy=   -38.186888 (dE=-0.577E-05)
 bond charge predicted
       N       E                     dE             d eps       ncg     rms          rms(c)
DAV:   1    -0.381868863211E+02    0.14685E-05   -0.22160E-03  9912   0.269E-01    0.148E-02
DAV:   2    -0.381868893518E+02   -0.30307E-05   -0.68122E-05 11800   0.754E-02    0.761E-03
DAV:   3    -0.381868888249E+02    0.52693E-06   -0.45857E-06 12284   0.245E-02    0.416E-03
DAV:   4    -0.381868885072E+02    0.31764E-06   -0.99722E-07 12232   0.191E-02    0.116E-03
DAV:   5    -0.381868884991E+02    0.81104E-08   -0.37411E-07 10768   0.837E-03    0.525E-04
DAV:   6    -0.381868884993E+02   -0.11687E-09   -0.74416E-08 10608   0.355E-03
  46 F= -.38186888E+02 E0= -.38186882E+02  d E =-.583727E-05
 curvature:  -0.72 expect dE=-0.247E-05 dE for cont linesearch -0.849E-08
 trial: gam= 0.42927 g(F)=  0.263E-05 g(S)=  0.794E-06 ort = 0.587E-06 (trialstep = 0.921E+00)
 search vector abs. value=  0.932E-05
 bond charge predicted
       N       E                     dE             d eps       ncg     rms          rms(c)
DAV:   1    -0.381868910088E+02   -0.25097E-05   -0.15547E-03  9948   0.235E-01    0.170E-02
DAV:   2    -0.381868913602E+02   -0.35138E-06   -0.59527E-05 11720   0.875E-02    0.748E-03
DAV:   3    -0.381868908945E+02    0.46567E-06   -0.49612E-06 12672   0.255E-02    0.413E-03
DAV:   4    -0.381868906050E+02    0.28956E-06   -0.86798E-07 12160   0.158E-02    0.102E-03
DAV:   5    -0.381868906266E+02   -0.21635E-07   -0.34192E-07 10740   0.628E-03    0.499E-04
DAV:   6    -0.381868906227E+02    0.38776E-08   -0.45522E-08  9816   0.341E-03
  47 F= -.38186891E+02 E0= -.38186885E+02  d E =-.212346E-05
 trial-energy change:   -0.000002  1 .order   -0.000002   -0.000003   -0.000001
 step:   1.4319(harm=  1.4319)  dis= 0.00032  next Energy=   -38.186891 (dE=-0.263E-05)
 bond charge predicted
       N       E                     dE             d eps       ncg     rms          rms(c)
DAV:   1    -0.381868911015E+02   -0.47489E-06   -0.47846E-04  9952   0.130E-01    0.944E-03
DAV:   2    -0.381868911882E+02   -0.86696E-07   -0.18489E-05 11720   0.494E-02    0.417E-03
DAV:   3    -0.381868910600E+02    0.12813E-06   -0.15467E-06 12120   0.150E-02    0.230E-03
DAV:   4    -0.381868909746E+02    0.85493E-07   -0.29608E-07 12288   0.100E-02    0.567E-04
DAV:   5    -0.381868909827E+02   -0.81172E-08   -0.10961E-07 10760   0.411E-03    0.276E-04
DAV:   6    -0.381868909805E+02    0.22037E-08   -0.17107E-08  6232   0.196E-03
  48 F= -.38186891E+02 E0= -.38186885E+02  d E =-.248121E-05
 curvature:  -1.82 expect dE=-0.381E-05 dE for cont linesearch -0.980E-08
 trial: gam= 0.55144 g(F)=  0.177E-05 g(S)=  0.333E-06 ort = 0.224E-06 (trialstep = 0.102E+01)
 search vector abs. value=  0.518E-05
 bond charge predicted
       N       E                     dE             d eps       ncg     rms          rms(c)
DAV:   1    -0.381868919435E+02   -0.96084E-06   -0.11271E-03  9908   0.185E-01    0.984E-03
DAV:   2    -0.381868930284E+02   -0.10849E-05   -0.26047E-05 11984   0.425E-02    0.592E-03
DAV:   3    -0.381868925142E+02    0.51420E-06   -0.18254E-06 12004   0.160E-02    0.267E-03
DAV:   4    -0.381868923995E+02    0.11467E-06   -0.55023E-07 11900   0.133E-02    0.754E-04
DAV:   5    -0.381868924078E+02   -0.83191E-08   -0.18280E-07 12340   0.681E-03    0.403E-04
DAV:   6    -0.381868924085E+02   -0.64529E-09   -0.37966E-08  8192   0.238E-03
  49 F= -.38186892E+02 E0= -.38186886E+02  d E =-.142803E-05
 trial-energy change:   -0.000001  1 .order   -0.000001   -0.000002   -0.000001
 step:   1.4086(harm=  1.4086)  dis= 0.00028  next Energy=   -38.186893 (dE=-0.157E-05)
 bond charge predicted
       N       E                     dE             d eps       ncg     rms          rms(c)
DAV:   1    -0.381868924796E+02   -0.71720E-07   -0.15989E-04  9908   0.696E-02    0.372E-03
DAV:   2    -0.381868926346E+02   -0.15506E-06   -0.37293E-06 12016   0.165E-02    0.226E-03
DAV:   3    -0.381868925473E+02    0.87292E-07   -0.27283E-07 12020   0.748E-03    0.103E-03
DAV:   4    -0.381868925255E+02    0.21853E-07   -0.82943E-08 11240   0.600E-03    0.297E-04
DAV:   5    -0.381868925271E+02   -0.16425E-08   -0.26947E-08  7556   0.272E-03
  50 F= -.38186893E+02 E0= -.38186886E+02  d E =-.154666E-05
 curvature:  -1.64 expect dE=-0.278E-05 dE for cont linesearch -0.381E-09
 trial: gam= 0.88672 g(F)=  0.125E-05 g(S)=  0.446E-06 ort = 0.347E-07 (trialstep = 0.978E+00)
 search vector abs. value=  0.583E-05
 bond charge predicted
       N       E                     dE             d eps       ncg     rms          rms(c)
DAV:   1    -0.381868957659E+02   -0.32404E-05   -0.11852E-03 10132   0.220E-01    0.191E-02
DAV:   2    -0.381868941309E+02    0.16350E-05   -0.65624E-05 11300   0.992E-02    0.731E-03
DAV:   3    -0.381868937653E+02    0.36557E-06   -0.47497E-06 12640   0.261E-02    0.372E-03
DAV:   4    -0.381868935096E+02    0.25574E-06   -0.73153E-07 13072   0.121E-02    0.114E-03
DAV:   5    -0.381868935295E+02   -0.19921E-07   -0.27118E-07 11404   0.447E-03    0.394E-04
DAV:   6    -0.381868935266E+02    0.29600E-08   -0.21696E-08  7060   0.230E-03
  51 F= -.38186894E+02 E0= -.38186887E+02  d E =-.999434E-06
 trial-energy change:   -0.000001  1 .order   -0.000001   -0.000002   -0.000000
 step:   1.2055(harm=  1.2055)  dis= 0.00027  next Energy=   -38.186894 (dE=-0.104E-05)
 bond charge predicted
       N       E                     dE             d eps       ncg     rms          rms(c)
DAV:   1    -0.381868936801E+02   -0.15060E-06   -0.64387E-05 10160   0.512E-02    0.444E-03
DAV:   2    -0.381868935708E+02    0.10930E-06   -0.35408E-06 11356   0.231E-02    0.171E-03
DAV:   3    -0.381868935707E+02    0.86857E-10   -0.25832E-07 12492   0.620E-03    0.873E-04
DAV:   4    -0.381868935616E+02    0.90918E-08   -0.38921E-08  9716   0.305E-03
  52 F= -.38186894E+02 E0= -.38186887E+02  d E =-.103452E-05
 curvature:  -2.04 expect dE=-0.181E-05 dE for cont linesearch -0.101E-07
 trial: gam= 0.62680 g(F)=  0.441E-06 g(S)=  0.448E-06 ort =-0.170E-06 (trialstep = 0.102E+01)
 search vector abs. value=  0.297E-05
 bond charge predicted
       N       E                     dE             d eps       ncg     rms          rms(c)
DAV:   1    -0.381868934093E+02    0.16143E-06   -0.66166E-04  9868   0.143E-01    0.710E-03
DAV:   2    -0.381868942363E+02   -0.82697E-06   -0.16619E-05 11764   0.398E-02    0.434E-03
DAV:   3    -0.381868940067E+02    0.22955E-06   -0.12671E-06 11992   0.144E-02    0.220E-03
DAV:   4    -0.381868938844E+02    0.12237E-06   -0.30185E-07 12372   0.100E-02    0.513E-04
DAV:   5    -0.381868938816E+02    0.27812E-08   -0.10099E-07 10884   0.450E-03    0.286E-04
DAV:   6    -0.381868938818E+02   -0.26603E-09   -0.18528E-08  7508   0.190E-03
  53 F= -.38186894E+02 E0= -.38186888E+02  d E =-.320199E-06
 trial-energy change:   -0.000000  1 .order   -0.000000   -0.000001   -0.000000
 step:   1.1629(harm=  1.0519)  dis= 0.00018  next Energy=   -38.186894 (dE=-0.321E-06)
 bond charge predicted
       N       E                     dE             d eps       ncg     rms          rms(c)
DAV:   1    -0.381868938831E+02   -0.15766E-08   -0.12391E-05  9896   0.198E-02    0.995E-04
DAV:   2    -0.381868939007E+02   -0.17586E-07   -0.32605E-07 11788   0.604E-03    0.597E-04
DAV:   3    -0.381868938877E+02    0.13019E-07   -0.23404E-08  7616   0.241E-03    0.310E-04
DAV:   4    -0.381868938800E+02    0.77248E-08   -0.72813E-09  5788   0.184E-03
  54 F= -.38186894E+02 E0= -.38186888E+02  d E =-.318351E-06
 curvature:  28.40 expect dE= 0.253E-04 dE for cont linesearch  0.427E-09
 trial: gam= 0.99322 g(F)=  0.327E-06 g(S)=  0.564E-06 ort = 0.668E-08 (trialstep = 0.814E+00)
 search vector abs. value=  0.383E-05
 bond charge predicted
       N       E                     dE             d eps       ncg     rms          rms(c)
DAV:   1    -0.381868935211E+02    0.36662E-06   -0.52498E-04  9868   0.146E-01    0.122E-02
DAV:   2    -0.381868929173E+02    0.60381E-06   -0.27191E-05 11180   0.641E-02    0.543E-03
DAV:   3    -0.381868928008E+02    0.11650E-06   -0.21491E-06 12840   0.184E-02    0.267E-03
DAV:   4    -0.381868927184E+02    0.82364E-07   -0.36396E-07 12828   0.885E-03    0.830E-04
DAV:   5    -0.381868927385E+02   -0.20103E-07   -0.12380E-07 11092   0.331E-03    0.238E-04
DAV:   6    -0.381868927380E+02    0.50295E-09   -0.11793E-08  6120   0.168E-03
  55 F= -.38186893E+02 E0= -.38186887E+02  d E =0.114197E-05
 trial-energy change:    0.000001  1 .order   -0.000000   -0.000001   -0.000000
 step:   0.8374(harm=  0.8374)  dis= 0.00011  next Energy=   -38.186894 (dE=-0.376E-06)
 bond charge predicted
       N       E                     dE             d eps       ncg     rms          rms(c)
DAV:   1    -0.381868927363E+02    0.22114E-08   -0.44835E-07 10924   0.454E-03    0.357E-04
DAV:   2    -0.381868927330E+02    0.33301E-08   -0.19594E-08  6072   0.207E-03
  56 F= -.38186893E+02 E0= -.38186887E+02  d E =0.114701E-05
 curvature:  -1.79 expect dE=-0.421E-06 dE for cont linesearch -0.107E-09
 trial: gam= 0.02997 g(F)=  0.113E-06 g(S)=  0.123E-06 ort = 0.151E-07 (trialstep = 0.819E+00)
 search vector abs. value=  0.240E-06
 bond charge predicted
       N       E                     dE             d eps       ncg     rms          rms(c)
DAV:   1    -0.381868945653E+02   -0.18290E-05   -0.26408E-05  9888   0.318E-02    0.357E-03
DAV:   2    -0.381868944785E+02    0.86798E-07   -0.15069E-06 12280   0.151E-02    0.208E-03
DAV:   3    -0.381868944415E+02    0.37015E-07   -0.16661E-07 13476   0.625E-03    0.881E-04
DAV:   4    -0.381868944433E+02   -0.18040E-08   -0.53307E-08 10764   0.368E-03
  57 F= -.38186894E+02 E0= -.38186888E+02  d E =-.171028E-05
 trial-energy change:   -0.000002  1 .order   -0.000000   -0.000000   -0.000000
 step:   0.8266(harm=  1.5680)  dis= 0.00002  next Energy=   -38.186894 (dE=-0.171E-05)
 bond charge predicted
       N       E                     dE             d eps       ncg     rms          rms(c)
DAV:   1    -0.381868944446E+02   -0.31141E-08   -0.18288E-08  6056   0.179E-03    0.153E-04
DAV:   2    -0.381868944442E+02    0.40791E-09   -0.42473E-09  5632   0.136E-03
  58 F= -.38186894E+02 E0= -.38186888E+02  d E =-.171118E-05
 curvature:  -0.02 expect dE=-0.115E-08 dE for cont linesearch -0.408E-09
 trial: gam=-0.02002 g(F)=  0.360E-07 g(S)=  0.333E-07 ort = 0.766E-07 (trialstep = 0.820E+00)
 search vector abs. value=  0.663E-07
 reached required accuracy - stopping structural energy minimisation
 writing wavefunctions
Thu Jan  6 02:16:38 CST 2022
