Thu Jan  6 00:22:59 CST 2022
 running on   48 total cores
 distrk:  each k-point on   48 cores,    1 groups
 distr:  one band on   24 cores,    2 groups
 using from now: INCAR     
 vasp.5.3.5 31Mar14 (build Jan 11 2016 19:50:55) complex                        
  
 POSCAR found type information on POSCAR  Zn Ga N  O 
 POSCAR found :  4 types and       8 ions
 scaLAPACK will be used

 ----------------------------------------------------------------------------- 
|                                                                             |
|           W    W    AA    RRRRR   N    N  II  N    N   GGGG   !!!           |
|           W    W   A  A   R    R  NN   N  II  NN   N  G    G  !!!           |
|           W    W  A    A  R    R  N N  N  II  N N  N  G       !!!           |
|           W WW W  AAAAAA  RRRRR   N  N N  II  N  N N  G  GGG   !            |
|           WW  WW  A    A  R   R   N   NN  II  N   NN  G    G                |
|           W    W  A    A  R    R  N    N  II  N    N   GGGG   !!!           |
|                                                                             |
|      For optimal performance we recommend to set                            |
|        NCORE= 4 - approx SQRT( number of cores)                             |
|      NCORE specifies how many cores store one orbital (NPAR=cpu/NCORE).     |
|      This setting can  greatly improve the performance of VASP for DFT.     |
|      The default, NPAR=number of cores might be grossly inefficient         |
|      on modern multi-core architectures or massively parallel machines.     |
|      Do your own testing !!!!                                               |
|      Unfortunately you need to use the default for GW and RPA calculations. |
|      (for HF NCORE is supported but not extensively tested yet)             |
|                                                                             |
 ----------------------------------------------------------------------------- 

 LDA part: xc-table for Pade appr. of Perdew
 POSCAR, INCAR and KPOINTS ok, starting setup
 WARNING: small aliasing (wrap around) errors must be expected
 FFT: planning ...
 WAVECAR not read
 entering main loop
       N       E                     dE             d eps       ncg     rms          rms(c)
DAV:   1     0.910360143949E+03    0.91036E+03   -0.42106E+04 10192   0.344E+03
DAV:   2     0.140386354252E+03   -0.76997E+03   -0.73917E+03  9864   0.803E+02
DAV:   3    -0.341356440022E+02   -0.17452E+03   -0.16997E+03 11032   0.273E+02
DAV:   4    -0.489477654074E+02   -0.14812E+02   -0.14642E+02 12220   0.811E+01
DAV:   5    -0.494076167678E+02   -0.45985E+00   -0.45793E+00 12428   0.143E+01    0.174E+01
DAV:   6    -0.412637781104E+02    0.81438E+01   -0.22597E+01 18708   0.815E+01    0.841E+00
DAV:   7    -0.419960907804E+02   -0.73231E+00   -0.92302E+00 10672   0.212E+01    0.573E+00
DAV:   8    -0.419155418868E+02    0.80549E-01   -0.12887E+00 15376   0.109E+01    0.250E+00
DAV:   9    -0.418684081390E+02    0.47134E-01   -0.19784E-01 14344   0.640E+00    0.919E-01
DAV:  10    -0.418614199198E+02    0.69882E-02   -0.70056E-02 13596   0.235E+00    0.365E-01
DAV:  11    -0.418617638425E+02   -0.34392E-03   -0.12564E-02 12664   0.109E+00    0.117E-01
DAV:  12    -0.418619761136E+02   -0.21227E-03   -0.21826E-03 14272   0.672E-01    0.598E-02
DAV:  13    -0.418620403074E+02   -0.64194E-04   -0.49987E-04 10680   0.256E-01    0.402E-02
DAV:  14    -0.418620536529E+02   -0.13346E-04   -0.13538E-04 13372   0.863E-02    0.165E-02
DAV:  15    -0.418620566741E+02   -0.30212E-05   -0.14099E-05 12064   0.439E-02    0.678E-03
DAV:  16    -0.418620574088E+02   -0.73467E-06   -0.54044E-06 12832   0.262E-02    0.287E-03
DAV:  17    -0.418620574604E+02   -0.51684E-07   -0.13117E-06 11380   0.119E-02    0.179E-03
DAV:  18    -0.418620575121E+02   -0.51672E-07   -0.30255E-07 14032   0.691E-03    0.964E-04
DAV:  19    -0.418620574674E+02    0.44742E-07   -0.73899E-08 12088   0.273E-03    0.300E-04
DAV:  20    -0.418620574508E+02    0.16561E-07   -0.72425E-09  6056   0.105E-03    0.109E-04
DAV:  21    -0.418620574437E+02    0.71491E-08   -0.29046E-09  5776   0.734E-04
   1 F= -.41862057E+02 E0= -.41861584E+02  d E =-.418621E+02
 curvature:   0.00 expect dE= 0.000E+00 dE for cont linesearch  0.000E+00
 trial: gam= 0.00000 g(F)=  0.927E-05 g(S)=  0.301E-01 ort = 0.000E+00 (trialstep = 0.100E+01)
 search vector abs. value=  0.301E-01
 bond charge predicted
       N       E                     dE             d eps       ncg     rms          rms(c)
DAV:   1    -0.420511166581E+02   -0.18906E+00   -0.35117E+00 12880   0.262E+01    0.305E+00
DAV:   2    -0.419142910935E+02    0.13683E+00   -0.64162E-01 12600   0.136E+01    0.138E+00
DAV:   3    -0.418884639292E+02    0.25827E-01   -0.53240E-02 15536   0.324E+00    0.629E-01
DAV:   4    -0.418808488307E+02    0.76151E-02   -0.99538E-03 16796   0.141E+00    0.129E-01
DAV:   5    -0.418809289706E+02   -0.80140E-04   -0.51038E-03 10536   0.635E-01    0.823E-02
DAV:   6    -0.418809324279E+02   -0.34574E-05   -0.37193E-04 14468   0.181E-01    0.524E-02
DAV:   7    -0.418809409795E+02   -0.85516E-05   -0.13520E-04 13632   0.116E-01    0.323E-02
DAV:   8    -0.418809331972E+02    0.77823E-05   -0.39389E-05 13576   0.738E-02    0.991E-03
DAV:   9    -0.418809324322E+02    0.76507E-06   -0.11654E-05 12448   0.301E-02    0.320E-03
DAV:  10    -0.418809325796E+02   -0.14741E-06   -0.22522E-06 11224   0.130E-02    0.196E-03
DAV:  11    -0.418809326394E+02   -0.59787E-07   -0.13887E-07 12504   0.667E-03    0.124E-03
DAV:  12    -0.418809327473E+02   -0.10795E-06   -0.64036E-08 11708   0.215E-03    0.472E-04
DAV:  13    -0.418809327534E+02   -0.61204E-08   -0.85219E-09  5968   0.935E-04
   2 F= -.41880933E+02 E0= -.41880217E+02  d E =-.188753E-01
 trial-energy change:   -0.018875  1 .order   -0.019003   -0.030084   -0.007923
 step:   1.3754(harm=  1.3575)  dis= 0.00043  next Energy=   -41.882413 (dE=-0.204E-01)
 bond charge predicted
       N       E                     dE             d eps       ncg     rms          rms(c)
DAV:   1    -0.419059632873E+02   -0.25031E-01   -0.48448E-01 12864   0.963E+00    0.114E+00
DAV:   2    -0.418869474742E+02    0.19016E-01   -0.89901E-02 12464   0.516E+00    0.512E-01
DAV:   3    -0.418833736212E+02    0.35739E-02   -0.72693E-03 15524   0.121E+00    0.233E-01
DAV:   4    -0.418823138541E+02    0.10598E-02   -0.13427E-03 16396   0.527E-01    0.476E-02
DAV:   5    -0.418823227235E+02   -0.88694E-05   -0.70657E-04 10524   0.234E-01    0.288E-02
DAV:   6    -0.418823237493E+02   -0.10258E-05   -0.49737E-05 14488   0.637E-02    0.189E-02
DAV:   7    -0.418823252489E+02   -0.14996E-05   -0.16958E-05 14012   0.419E-02    0.115E-02
DAV:   8    -0.418823246868E+02    0.56209E-06   -0.52118E-06 13512   0.264E-02    0.389E-03
DAV:   9    -0.418823245416E+02    0.14519E-06   -0.16394E-06 12668   0.122E-02    0.123E-03
DAV:  10    -0.418823245523E+02   -0.10664E-07   -0.33061E-07 10832   0.505E-03    0.782E-04
DAV:  11    -0.418823245722E+02   -0.19965E-07   -0.18275E-08  6936   0.257E-03    0.503E-04
DAV:  12    -0.418823246123E+02   -0.40074E-07   -0.13048E-08  5932   0.102E-03    0.171E-04
DAV:  13    -0.418823246142E+02   -0.18904E-08   -0.32052E-09  5572   0.686E-04
   3 F= -.41882325E+02 E0= -.41881512E+02  d E =-.202672E-01
 curvature:  -0.68 expect dE=-0.179E-01 dE for cont linesearch -0.210E-05
 trial: gam= 0.88773 g(F)=  0.763E-03 g(S)=  0.256E-01 ort =-0.305E-03 (trialstep = 0.652E+00)
 search vector abs. value=  0.496E-01
 bond charge predicted
       N       E                     dE             d eps       ncg     rms          rms(c)
DAV:   1    -0.419320989753E+02   -0.49774E-01   -0.16552E+00 10316   0.878E+00    0.157E+00
DAV:   2    -0.419105040360E+02    0.21595E-01   -0.88639E-02 11816   0.453E+00    0.939E-01
DAV:   3    -0.418976269373E+02    0.12877E-01   -0.12816E-02 13412   0.208E+00    0.298E-01
DAV:   4    -0.418965520361E+02    0.10749E-02   -0.46947E-03 11180   0.875E-01    0.486E-02
DAV:   5    -0.418966423313E+02   -0.90295E-04   -0.11232E-03 11944   0.313E-01    0.321E-02
DAV:   6    -0.418966482532E+02   -0.59219E-05   -0.10646E-04 11548   0.119E-01    0.231E-02
DAV:   7    -0.418966464981E+02    0.17552E-05   -0.31589E-05 12328   0.133E-01    0.595E-03
DAV:   8    -0.418966463075E+02    0.19057E-06   -0.79119E-06 11656   0.523E-02    0.248E-03
DAV:   9    -0.418966462976E+02    0.99276E-08   -0.94885E-07 12720   0.935E-03    0.158E-03
DAV:  10    -0.418966461997E+02    0.97803E-07   -0.19116E-07 13868   0.706E-03    0.657E-04
DAV:  11    -0.418966462008E+02   -0.10805E-08   -0.69388E-08 11068   0.381E-03
   4 F= -.41896646E+02 E0= -.41895772E+02  d E =-.143216E-01
 trial-energy change:   -0.014322  1 .order   -0.014297   -0.017050   -0.011543
 step:   2.0203(harm=  2.0203)  dis= 0.00535  next Energy=   -41.908720 (dE=-0.264E-01)
 bond charge predicted
       N       E                     dE             d eps       ncg     rms          rms(c)
DAV:   1    -0.420654440861E+02   -0.16880E+00   -0.72095E+00 10384   0.184E+01    0.330E+00
DAV:   2    -0.419686417250E+02    0.96802E-01   -0.38971E-01 11812   0.943E+00    0.196E+00
DAV:   3    -0.419127616309E+02    0.55880E-01   -0.55981E-02 13512   0.435E+00    0.633E-01
DAV:   4    -0.419078925773E+02    0.48691E-02   -0.20466E-02 11120   0.183E+00    0.984E-02
DAV:   5    -0.419083063478E+02   -0.41377E-03   -0.49481E-03 11724   0.636E-01    0.670E-02
DAV:   6    -0.419083248163E+02   -0.18469E-04   -0.40192E-04 12260   0.216E-01    0.461E-02
DAV:   7    -0.419083196525E+02    0.51638E-05   -0.11720E-04 12932   0.229E-01    0.109E-02
DAV:   8    -0.419083189008E+02    0.75169E-06   -0.28868E-05 11596   0.894E-02    0.517E-03
DAV:   9    -0.419083189150E+02   -0.14119E-07   -0.36453E-06 13008   0.189E-02    0.343E-03
DAV:  10    -0.419083187273E+02    0.18769E-06   -0.90991E-07 14552   0.147E-02    0.145E-03
DAV:  11    -0.419083187135E+02    0.13776E-07   -0.29728E-07 13280   0.780E-03    0.438E-04
DAV:  12    -0.419083187069E+02    0.66084E-08   -0.40414E-08 10684   0.227E-03
   5 F= -.41908319E+02 E0= -.41907314E+02  d E =-.259941E-01
 curvature:  -1.92 expect dE=-0.630E-02 dE for cont linesearch -0.424E-04
 ZBRENT: interpolating
 opt :   1.9439  next Energy=   -41.908359 (dE=-0.260E-01)
 bond charge predicted
       N       E                     dE             d eps       ncg     rms          rms(c)
DAV:   1    -0.419088308294E+02   -0.51212E-03   -0.22437E-02 10376   0.105E+00    0.186E-01
DAV:   2    -0.419085336880E+02    0.29714E-03   -0.13487E-03 11792   0.571E-01    0.110E-01
DAV:   3    -0.419083626665E+02    0.17102E-03   -0.17330E-04 13640   0.239E-01    0.380E-02
DAV:   4    -0.419083432934E+02    0.19373E-04   -0.64282E-05 12156   0.104E-01    0.545E-03
DAV:   5    -0.419083447961E+02   -0.15027E-05   -0.16842E-05 11064   0.368E-02    0.370E-03
DAV:   6    -0.419083448824E+02   -0.86282E-07   -0.14326E-06 12572   0.141E-02    0.271E-03
DAV:   7    -0.419083449646E+02   -0.82216E-07   -0.40998E-07 12048   0.140E-02    0.621E-04
DAV:   8    -0.419083449569E+02    0.77466E-08   -0.93114E-08 10704   0.506E-03
   6 F= -.41908345E+02 E0= -.41907347E+02  d E =-.260203E-01
 curvature:  -1.81 expect dE=-0.578E-02 dE for cont linesearch -0.625E-07
 trial: gam= 0.02441 g(F)=  0.258E-02 g(S)=  0.613E-03 ort = 0.414E-04 (trialstep = 0.911E+00)
 search vector abs. value=  0.323E-02
 bond charge predicted
       N       E                     dE             d eps       ncg     rms          rms(c)
DAV:   1    -0.419123723437E+02   -0.40274E-02   -0.52834E-01 11528   0.576E+00    0.533E-01
DAV:   2    -0.419106628235E+02    0.17095E-02   -0.46153E-02 12096   0.287E+00    0.230E-01
DAV:   3    -0.419102238519E+02    0.43897E-03   -0.36032E-03 13652   0.732E-01    0.113E-01
DAV:   4    -0.419099661863E+02    0.25767E-03   -0.61953E-04 14432   0.400E-01    0.336E-02
DAV:   5    -0.419099730639E+02   -0.68776E-05   -0.29620E-04 10812   0.149E-01    0.118E-02
DAV:   6    -0.419099732080E+02   -0.14415E-06   -0.21232E-05 12948   0.418E-02    0.869E-03
DAV:   7    -0.419099728298E+02    0.37818E-06   -0.22375E-06 13128   0.219E-02    0.607E-03
DAV:   8    -0.419099723763E+02    0.45352E-06   -0.12227E-06 13668   0.160E-02    0.150E-03
DAV:   9    -0.419099723514E+02    0.24887E-07   -0.52067E-07 13032   0.107E-02    0.807E-04
DAV:  10    -0.419099723515E+02   -0.60936E-10   -0.10733E-07 11540   0.288E-03    0.651E-04
DAV:  11    -0.419099723358E+02    0.15646E-07   -0.14882E-08  5868   0.128E-03    0.371E-04
DAV:  12    -0.419099723121E+02    0.23699E-07   -0.10153E-08  5632   0.129E-03    0.908E-05
DAV:  13    -0.419099723113E+02    0.82309E-09   -0.46268E-09  5512   0.618E-04
   7 F= -.41909972E+02 E0= -.41908926E+02  d E =-.162735E-02
 trial-energy change:   -0.001627  1 .order   -0.001623   -0.002910   -0.000336
 step:   1.0298(harm=  1.0298)  dis= 0.00532  next Energy=   -41.909990 (dE=-0.165E-02)
 bond charge predicted
       N       E                     dE             d eps       ncg     rms          rms(c)
DAV:   1    -0.419100339354E+02   -0.61623E-04   -0.90360E-03 11556   0.758E-01    0.695E-02
DAV:   2    -0.419100048226E+02    0.29113E-04   -0.78751E-04 12112   0.375E-01    0.302E-02
DAV:   3    -0.419099979273E+02    0.68953E-05   -0.61282E-05 13640   0.946E-02    0.147E-02
DAV:   4    -0.419099938792E+02    0.40481E-05   -0.10413E-05 14436   0.520E-02    0.438E-03
DAV:   5    -0.419099941228E+02   -0.24356E-06   -0.50444E-06 10808   0.194E-02    0.159E-03
DAV:   6    -0.419099941061E+02    0.16641E-07   -0.36093E-07 12924   0.539E-03    0.117E-03
DAV:   7    -0.419099940846E+02    0.21527E-07   -0.33693E-08  8864   0.285E-03    0.809E-04
DAV:   8    -0.419099940411E+02    0.43493E-07   -0.23268E-08  7692   0.176E-03    0.222E-04
DAV:   9    -0.419099940405E+02    0.55297E-09   -0.93321E-09  5664   0.151E-03
   8 F= -.41909994E+02 E0= -.41908941E+02  d E =-.164908E-02
 curvature:  -0.52 expect dE=-0.496E-03 dE for cont linesearch -0.486E-09
 trial: gam= 0.30089 g(F)=  0.642E-03 g(S)=  0.312E-03 ort =-0.174E-05 (trialstep = 0.935E+00)
 search vector abs. value=  0.125E-02
 bond charge predicted
       N       E                     dE             d eps       ncg     rms          rms(c)
DAV:   1    -0.419104518536E+02   -0.45781E-03   -0.23643E-01  9864   0.289E+00    0.197E-01
DAV:   2    -0.419108049849E+02   -0.35313E-03   -0.10682E-02 11608   0.103E+00    0.108E-01
DAV:   3    -0.419106807221E+02    0.12426E-03   -0.74307E-04 12308   0.317E-01    0.546E-02
DAV:   4    -0.419106197729E+02    0.60949E-04   -0.17891E-04 13040   0.178E-01    0.122E-02
DAV:   5    -0.419106239823E+02   -0.42095E-05   -0.65456E-05 10660   0.662E-02    0.591E-03
DAV:   6    -0.419106238516E+02    0.13072E-06   -0.40124E-06 12972   0.166E-02    0.336E-03
DAV:   7    -0.419106238490E+02    0.25811E-08   -0.62555E-07 15476   0.133E-02    0.127E-03
DAV:   8    -0.419106238916E+02   -0.42556E-07   -0.19366E-07 11428   0.469E-03    0.679E-04
DAV:   9    -0.419106239004E+02   -0.88266E-08   -0.25456E-08  8380   0.177E-03
   9 F= -.41910624E+02 E0= -.41909566E+02  d E =-.629860E-03
 trial-energy change:   -0.000630  1 .order   -0.000630   -0.000892   -0.000368
 step:   1.5923(harm=  1.5923)  dis= 0.00405  next Energy=   -41.910754 (dE=-0.759E-03)
 bond charge predicted
       N       E                     dE             d eps       ncg     rms          rms(c)
DAV:   1    -0.419106675834E+02   -0.43692E-04   -0.11708E-01  9864   0.203E+00    0.139E-01
DAV:   2    -0.419108420997E+02   -0.17452E-03   -0.52828E-03 11600   0.720E-01    0.757E-02
DAV:   3    -0.419107803253E+02    0.61774E-04   -0.36737E-04 12312   0.222E-01    0.384E-02
DAV:   4    -0.419107500719E+02    0.30253E-04   -0.87980E-05 13040   0.125E-01    0.860E-03
DAV:   5    -0.419107521253E+02   -0.20535E-05   -0.32442E-05 10668   0.466E-02    0.417E-03
DAV:   6    -0.419107520771E+02    0.48291E-07   -0.19836E-06 12968   0.116E-02    0.233E-03
DAV:   7    -0.419107520884E+02   -0.11373E-07   -0.30711E-07 15428   0.874E-03    0.886E-04
DAV:   8    -0.419107521148E+02   -0.26394E-07   -0.92126E-08 10652   0.316E-03    0.475E-04
DAV:   9    -0.419107521207E+02   -0.59072E-08   -0.11365E-08  5920   0.128E-03
  10 F= -.41910752E+02 E0= -.41909691E+02  d E =-.758080E-03
 curvature:  -1.04 expect dE=-0.435E-03 dE for cont linesearch -0.360E-08
 trial: gam= 0.43585 g(F)=  0.363E-03 g(S)=  0.550E-04 ort =-0.208E-05 (trialstep = 0.107E+01)
 search vector abs. value=  0.653E-03
 bond charge predicted
       N       E                     dE             d eps       ncg     rms          rms(c)
DAV:   1    -0.419107436422E+02    0.84726E-05   -0.16934E-01  9892   0.227E+00    0.847E-02
DAV:   2    -0.419110502415E+02   -0.30660E-03   -0.39065E-03 11664   0.464E-01    0.528E-02
DAV:   3    -0.419110365316E+02    0.13710E-04   -0.17235E-04 12184   0.158E-01    0.302E-02
DAV:   4    -0.419110252366E+02    0.11295E-04   -0.40683E-05 13012   0.106E-01    0.865E-03
DAV:   5    -0.419110259095E+02   -0.67288E-06   -0.14257E-05 11328   0.445E-02    0.332E-03
DAV:   6    -0.419110258611E+02    0.48457E-07   -0.19067E-06 11796   0.178E-02    0.227E-03
DAV:   7    -0.419110258736E+02   -0.12576E-07   -0.38167E-07 12400   0.101E-02    0.803E-04
DAV:   8    -0.419110259022E+02   -0.28572E-07   -0.11581E-07 11288   0.477E-03    0.439E-04
DAV:   9    -0.419110259055E+02   -0.33288E-08   -0.13901E-08  5888   0.112E-03
  11 F= -.41911026E+02 E0= -.41909966E+02  d E =-.273785E-03
 trial-energy change:   -0.000274  1 .order   -0.000275   -0.000445   -0.000105
 step:   1.4090(harm=  1.3967)  dis= 0.00337  next Energy=   -41.911043 (dE=-0.291E-03)
 bond charge predicted
       N       E                     dE             d eps       ncg     rms          rms(c)
DAV:   1    -0.419110116735E+02    0.14229E-04   -0.17511E-02  9892   0.730E-01    0.272E-02
DAV:   2    -0.419110433604E+02   -0.31687E-04   -0.40294E-04 11656   0.148E-01    0.169E-02
DAV:   3    -0.419110418274E+02    0.15330E-05   -0.17411E-05 12184   0.494E-02    0.967E-03
DAV:   4    -0.419110406786E+02    0.11488E-05   -0.41583E-06 13028   0.344E-02    0.274E-03
DAV:   5    -0.419110407356E+02   -0.56965E-07   -0.14748E-06 11404   0.145E-02    0.107E-03
DAV:   6    -0.419110407256E+02    0.99285E-08   -0.19456E-07 11768   0.564E-03    0.725E-04
DAV:   7    -0.419110407345E+02   -0.88276E-08   -0.39809E-08 10384   0.324E-03
  12 F= -.41911041E+02 E0= -.41909981E+02  d E =-.288614E-03
 curvature:  -1.09 expect dE=-0.177E-03 dE for cont linesearch -0.224E-07
 trial: gam= 0.39303 g(F)=  0.104E-03 g(S)=  0.586E-04 ort =-0.366E-05 (trialstep = 0.113E+01)
 search vector abs. value=  0.260E-03
 bond charge predicted
       N       E                     dE             d eps       ncg     rms          rms(c)
DAV:   1    -0.419113161322E+02   -0.27541E-03   -0.63892E-02  9900   0.142E+00    0.123E-01
DAV:   2    -0.419112245468E+02    0.91585E-04   -0.17104E-03 11864   0.509E-01    0.724E-02
DAV:   3    -0.419111384979E+02    0.86049E-04   -0.18639E-04 13472   0.174E-01    0.281E-02
DAV:   4    -0.419111263923E+02    0.12106E-04   -0.58382E-05 12028   0.975E-02    0.471E-03
DAV:   5    -0.419111277448E+02   -0.13525E-05   -0.17798E-05 10680   0.388E-02    0.360E-03
DAV:   6    -0.419111276017E+02    0.14313E-06   -0.92566E-07 12480   0.216E-02    0.208E-03
DAV:   7    -0.419111275573E+02    0.44344E-07   -0.40293E-07 12016   0.861E-03    0.671E-04
DAV:   8    -0.419111275516E+02    0.56680E-08   -0.93128E-08 11908   0.361E-03
  13 F= -.41911128E+02 E0= -.41910076E+02  d E =-.868172E-04
 trial-energy change:   -0.000087  1 .order   -0.000086   -0.000183    0.000010
 step:   1.0746(harm=  1.0733)  dis= 0.00118  next Energy=   -41.911128 (dE=-0.871E-04)
 bond charge predicted
       N       E                     dE             d eps       ncg     rms          rms(c)
DAV:   1    -0.419111283961E+02   -0.83874E-06   -0.17969E-04 10000   0.755E-02    0.651E-03
DAV:   2    -0.419111281550E+02    0.24104E-06   -0.48837E-06 11880   0.269E-02    0.388E-03
DAV:   3    -0.419111278367E+02    0.31834E-06   -0.52563E-07 13252   0.936E-03    0.150E-03
DAV:   4    -0.419111277820E+02    0.54712E-07   -0.17164E-07 11888   0.498E-03    0.248E-04
DAV:   5    -0.419111277884E+02   -0.64088E-08   -0.48130E-08 10036   0.193E-03
  14 F= -.41911128E+02 E0= -.41910075E+02  d E =-.870539E-04
 curvature:  -0.87 expect dE=-0.414E-04 dE for cont linesearch -0.134E-09
 trial: gam= 0.28309 g(F)=  0.297E-04 g(S)=  0.180E-04 ort = 0.201E-06 (trialstep = 0.112E+01)
 search vector abs. value=  0.687E-04
 bond charge predicted
       N       E                     dE             d eps       ncg     rms          rms(c)
DAV:   1    -0.419111979593E+02   -0.70177E-04   -0.15157E-02  9868   0.738E-01    0.656E-02
DAV:   2    -0.419111817891E+02    0.16170E-04   -0.54473E-04 11992   0.268E-01    0.385E-02
DAV:   3    -0.419111628892E+02    0.18900E-04   -0.49842E-05 13868   0.845E-02    0.165E-02
DAV:   4    -0.419111584899E+02    0.43993E-05   -0.13459E-05 12336   0.472E-02    0.266E-03
DAV:   5    -0.419111587726E+02   -0.28262E-06   -0.42119E-06 10680   0.188E-02    0.180E-03
DAV:   6    -0.419111587883E+02   -0.15722E-07   -0.33415E-07 13140   0.902E-03    0.102E-03
DAV:   7    -0.419111588035E+02   -0.15249E-07   -0.68141E-08 10892   0.542E-03    0.524E-04
DAV:   8    -0.419111588212E+02   -0.17654E-07   -0.19675E-08  6188   0.142E-03    0.163E-04
DAV:   9    -0.419111588265E+02   -0.53647E-08   -0.56810E-09  5676   0.837E-04
  15 F= -.41911159E+02 E0= -.41910105E+02  d E =-.310382E-04
 trial-energy change:   -0.000031  1 .order   -0.000031   -0.000054   -0.000009
 step:   1.3409(harm=  1.3376)  dis= 0.00083  next Energy=   -41.911160 (dE=-0.319E-04)
 bond charge predicted
       N       E                     dE             d eps       ncg     rms          rms(c)
DAV:   1    -0.419111611995E+02   -0.23784E-05   -0.57234E-04  9872   0.143E-01    0.127E-02
DAV:   2    -0.419111606070E+02    0.59255E-06   -0.20472E-05 11992   0.518E-02    0.747E-03
DAV:   3    -0.419111598041E+02    0.80294E-06   -0.18776E-06 13884   0.163E-02    0.319E-03
DAV:   4    -0.419111596148E+02    0.18928E-06   -0.50522E-07 12312   0.916E-03    0.516E-04
DAV:   5    -0.419111596254E+02   -0.10579E-07   -0.15890E-07 10680   0.366E-03    0.351E-04
DAV:   6    -0.419111596293E+02   -0.39622E-08   -0.99961E-09  5856   0.175E-03
  16 F= -.41911160E+02 E0= -.41910106E+02  d E =-.318409E-04
 curvature:  -0.96 expect dE=-0.634E-05 dE for cont linesearch -0.248E-08
 trial: gam= 0.15098 g(F)=  0.484E-05 g(S)=  0.176E-05 ort =-0.421E-06 (trialstep = 0.117E+01)
 search vector abs. value=  0.804E-05
 bond charge predicted
       N       E                     dE             d eps       ncg     rms          rms(c)
DAV:   1    -0.419111660595E+02   -0.64341E-05   -0.17175E-03  9912   0.242E-01    0.231E-02
DAV:   2    -0.419111661171E+02   -0.57613E-07   -0.66939E-05 12240   0.814E-02    0.138E-02
DAV:   3    -0.419111636443E+02    0.24727E-05   -0.65782E-06 12900   0.342E-02    0.501E-03
DAV:   4    -0.419111633630E+02    0.28137E-06   -0.16151E-06 12176   0.171E-02    0.914E-04
DAV:   5    -0.419111633878E+02   -0.24786E-07   -0.46399E-07 12016   0.622E-03    0.713E-04
DAV:   6    -0.419111633790E+02    0.88094E-08   -0.32517E-08  8672   0.316E-03
  17 F= -.41911163E+02 E0= -.41910108E+02  d E =-.374964E-05
 trial-energy change:   -0.000004  1 .order   -0.000004   -0.000008    0.000000
 step:   1.1191(harm=  1.1152)  dis= 0.00026  next Energy=   -41.911163 (dE=-0.376E-05)
 bond charge predicted
       N       E                     dE             d eps       ncg     rms          rms(c)
DAV:   1    -0.419111633753E+02    0.12447E-07   -0.27293E-06 10084   0.101E-02    0.918E-04
DAV:   2    -0.419111633756E+02   -0.29240E-09   -0.11383E-07 12992   0.414E-03    0.556E-04
DAV:   3    -0.419111633665E+02    0.90949E-08   -0.94353E-09  5520   0.234E-03
  18 F= -.41911163E+02 E0= -.41910108E+02  d E =-.373720E-05
 curvature:  -0.68 expect dE=-0.922E-06 dE for cont linesearch -0.110E-09
 trial: gam= 0.19823 g(F)=  0.908E-06 g(S)=  0.445E-06 ort =-0.360E-07 (trialstep = 0.116E+01)
 search vector abs. value=  0.165E-05
 bond charge predicted
       N       E                     dE             d eps       ncg     rms          rms(c)
DAV:   1    -0.419111731900E+02   -0.98144E-05   -0.31920E-04  9984   0.105E-01    0.121E-02
DAV:   2    -0.419111724825E+02    0.70747E-06   -0.12636E-05 12268   0.329E-02    0.722E-03
DAV:   3    -0.419111715484E+02    0.93409E-06   -0.11927E-06 14488   0.136E-02    0.151E-03
DAV:   4    -0.419111715479E+02    0.57162E-09   -0.44912E-07 10476   0.624E-03    0.481E-04
DAV:   5    -0.419111715463E+02    0.15948E-08   -0.47181E-08 10668   0.297E-03
  19 F= -.41911172E+02 E0= -.41910115E+02  d E =-.817975E-05
 trial-energy change:   -0.000008  1 .order   -0.000001   -0.000002   -0.000000
 step:   1.1625(harm=  1.3466)  dis= 0.00010  next Energy=   -41.911172 (dE=-0.818E-05)
 bond charge predicted
       N       E                     dE             d eps       ncg     rms          rms(c)
DAV:   1    -0.419111715435E+02    0.43242E-08   -0.12723E-08  5800   0.177E-03    0.210E-04
DAV:   2    -0.419111715431E+02    0.45429E-09   -0.56853E-09  5532   0.136E-03
  20 F= -.41911172E+02 E0= -.41910115E+02  d E =-.817656E-05
 curvature:  -0.05 expect dE=-0.170E-07 dE for cont linesearch -0.523E-09
 trial: gam= 0.18112 g(F)=  0.206E-06 g(S)=  0.146E-06 ort = 0.134E-06 (trialstep = 0.116E+01)
 search vector abs. value=  0.456E-06
 reached required accuracy - stopping structural energy minimisation
 writing wavefunctions
Thu Jan  6 00:28:56 CST 2022
