Wed Jan  5 23:31:21 CST 2022
 running on   48 total cores
 distrk:  each k-point on   48 cores,    1 groups
 distr:  one band on   24 cores,    2 groups
 using from now: INCAR     
 vasp.5.3.5 31Mar14 (build Jan 11 2016 19:50:55) complex                        
  
 POSCAR found type information on POSCAR  Zn Ga N  O 
 POSCAR found :  4 types and       8 ions
 scaLAPACK will be used

 ----------------------------------------------------------------------------- 
|                                                                             |
|           W    W    AA    RRRRR   N    N  II  N    N   GGGG   !!!           |
|           W    W   A  A   R    R  NN   N  II  NN   N  G    G  !!!           |
|           W    W  A    A  R    R  N N  N  II  N N  N  G       !!!           |
|           W WW W  AAAAAA  RRRRR   N  N N  II  N  N N  G  GGG   !            |
|           WW  WW  A    A  R   R   N   NN  II  N   NN  G    G                |
|           W    W  A    A  R    R  N    N  II  N    N   GGGG   !!!           |
|                                                                             |
|      For optimal performance we recommend to set                            |
|        NCORE= 4 - approx SQRT( number of cores)                             |
|      NCORE specifies how many cores store one orbital (NPAR=cpu/NCORE).     |
|      This setting can  greatly improve the performance of VASP for DFT.     |
|      The default, NPAR=number of cores might be grossly inefficient         |
|      on modern multi-core architectures or massively parallel machines.     |
|      Do your own testing !!!!                                               |
|      Unfortunately you need to use the default for GW and RPA calculations. |
|      (for HF NCORE is supported but not extensively tested yet)             |
|                                                                             |
 ----------------------------------------------------------------------------- 

 LDA part: xc-table for Pade appr. of Perdew
 POSCAR, INCAR and KPOINTS ok, starting setup
 WARNING: small aliasing (wrap around) errors must be expected
 FFT: planning ...
 WAVECAR not read
 entering main loop
       N       E                     dE             d eps       ncg     rms          rms(c)
DAV:   1     0.907728733790E+03    0.90773E+03   -0.41979E+04 10148   0.335E+03
DAV:   2     0.144880814243E+03   -0.76285E+03   -0.73333E+03  9888   0.787E+02
DAV:   3    -0.288315185856E+02   -0.17371E+03   -0.16881E+03 11244   0.268E+02
DAV:   4    -0.442828799800E+02   -0.15451E+02   -0.15242E+02 11960   0.803E+01
DAV:   5    -0.447918290896E+02   -0.50895E+00   -0.50683E+00 12752   0.143E+01    0.161E+01
DAV:   6    -0.384441307967E+02    0.63477E+01   -0.30098E+01 18576   0.794E+01    0.820E+00
DAV:   7    -0.386630234948E+02   -0.21889E+00   -0.76036E+00 10856   0.244E+01    0.533E+00
DAV:   8    -0.386150417394E+02    0.47982E-01   -0.97982E-01 13068   0.108E+01    0.310E+00
DAV:   9    -0.386237868793E+02   -0.87451E-02   -0.34693E-01 13564   0.676E+00    0.979E-01
DAV:  10    -0.386094444531E+02    0.14342E-01   -0.66160E-02 14100   0.415E+00    0.351E-01
DAV:  11    -0.386098351671E+02   -0.39071E-03   -0.24837E-02 13404   0.146E+00    0.165E-01
DAV:  12    -0.386100891258E+02   -0.25396E-03   -0.29890E-03 11600   0.599E-01    0.873E-02
DAV:  13    -0.386102559651E+02   -0.16684E-03   -0.74807E-04 11712   0.319E-01    0.240E-02
DAV:  14    -0.386102838458E+02   -0.27881E-04   -0.10200E-04 11896   0.125E-01    0.149E-02
DAV:  15    -0.386102884611E+02   -0.46153E-05   -0.25103E-05 11432   0.498E-02    0.543E-03
DAV:  16    -0.386102914362E+02   -0.29751E-05   -0.72847E-06 11312   0.380E-02    0.379E-03
DAV:  17    -0.386102915680E+02   -0.13181E-06   -0.13611E-06 12528   0.179E-02    0.137E-03
DAV:  18    -0.386102916569E+02   -0.88899E-07   -0.46566E-07 10956   0.567E-03    0.817E-04
DAV:  19    -0.386102916417E+02    0.15188E-07   -0.78576E-08 11656   0.607E-03    0.267E-04
DAV:  20    -0.386102916282E+02    0.13549E-07   -0.27547E-08  9704   0.121E-03    0.114E-04
DAV:  21    -0.386102916310E+02   -0.28695E-08   -0.28113E-09  6016   0.576E-04
   1 F= -.38610292E+02 E0= -.38597717E+02  d E =-.386103E+02
 curvature:   0.00 expect dE= 0.000E+00 dE for cont linesearch  0.000E+00
 trial: gam= 0.00000 g(F)=  0.135E-01 g(S)=  0.296E-02 ort = 0.000E+00 (trialstep = 0.100E+01)
 search vector abs. value=  0.164E-01
 bond charge predicted
       N       E                     dE             d eps       ncg     rms          rms(c)
DAV:   1    -0.386277398793E+02   -0.17448E-01   -0.33884E+00 10468   0.133E+01    0.123E+00
DAV:   2    -0.386209869087E+02    0.67530E-02   -0.27186E-01 11544   0.711E+00    0.524E-01
DAV:   3    -0.386189101972E+02    0.20767E-02   -0.24606E-02 12820   0.183E+00    0.255E-01
DAV:   4    -0.386175113460E+02    0.13989E-02   -0.34803E-03 14368   0.940E-01    0.813E-02
DAV:   5    -0.386174827933E+02    0.28553E-04   -0.13275E-03 11572   0.277E-01    0.243E-02
DAV:   6    -0.386174858477E+02   -0.30545E-05   -0.13335E-04 10804   0.154E-01    0.148E-02
DAV:   7    -0.386174847416E+02    0.11062E-05   -0.20850E-05 12916   0.753E-02    0.741E-03
DAV:   8    -0.386174849995E+02   -0.25796E-06   -0.56585E-06 14252   0.318E-02    0.255E-03
DAV:   9    -0.386174851520E+02   -0.15245E-06   -0.19008E-06 12056   0.113E-02    0.196E-03
DAV:  10    -0.386174852048E+02   -0.52778E-07   -0.19392E-07 13132   0.481E-03    0.973E-04
DAV:  11    -0.386174852830E+02   -0.78267E-07   -0.10754E-07 11740   0.297E-03    0.367E-04
DAV:  12    -0.386174852998E+02   -0.16736E-07   -0.12994E-08  6596   0.157E-03    0.192E-04
DAV:  13    -0.386174853008E+02   -0.10473E-08   -0.81731E-09  6260   0.764E-04
   2 F= -.38617485E+02 E0= -.38605304E+02  d E =-.719367E-02
 trial-energy change:   -0.007194  1 .order   -0.007234   -0.016418    0.001950
 step:   0.8926(harm=  0.8938)  dis= 0.01173  next Energy=   -38.617590 (dE=-0.730E-02)
 bond charge predicted
       N       E                     dE             d eps       ncg     rms          rms(c)
DAV:   1    -0.386177149108E+02   -0.22961E-03   -0.38751E-02 10428   0.140E+00    0.131E-01
DAV:   2    -0.386176299114E+02    0.84999E-04   -0.30854E-03 11568   0.751E-01    0.556E-02
DAV:   3    -0.386176053175E+02    0.24594E-04   -0.26533E-04 12972   0.200E-01    0.274E-02
DAV:   4    -0.386175904458E+02    0.14872E-04   -0.42418E-05 13876   0.935E-02    0.820E-03
DAV:   5    -0.386175906227E+02   -0.17695E-06   -0.16548E-05 11456   0.336E-02    0.262E-03
DAV:   6    -0.386175906200E+02    0.27344E-08   -0.13331E-06 10976   0.169E-02    0.156E-03
DAV:   7    -0.386175905521E+02    0.67903E-07   -0.23504E-07 12876   0.819E-03    0.781E-04
DAV:   8    -0.386175905271E+02    0.24948E-07   -0.64062E-08 11220   0.331E-03    0.273E-04
DAV:   9    -0.386175905227E+02    0.44283E-08   -0.21257E-08  7508   0.115E-03
   3 F= -.38617591E+02 E0= -.38605368E+02  d E =-.729889E-02
 curvature:  -0.45 expect dE=-0.302E-02 dE for cont linesearch -0.170E-08
 trial: gam= 0.41164 g(F)=  0.537E-02 g(S)=  0.138E-02 ort =-0.790E-05 (trialstep = 0.979E+00)
 search vector abs. value=  0.953E-02
 bond charge predicted
       N       E                     dE             d eps       ncg     rms          rms(c)
DAV:   1    -0.386168300638E+02    0.76046E-03   -0.18373E+00 10292   0.763E+00    0.452E-01
DAV:   2    -0.386206300515E+02   -0.38000E-02   -0.64289E-02 12324   0.215E+00    0.278E-01
DAV:   3    -0.386196942608E+02    0.93579E-03   -0.48192E-03 12476   0.717E-01    0.153E-01
DAV:   4    -0.386193472034E+02    0.34706E-03   -0.12698E-03 12336   0.532E-01    0.439E-02
DAV:   5    -0.386193696426E+02   -0.22439E-04   -0.36996E-04 11300   0.201E-01    0.236E-02
DAV:   6    -0.386193689419E+02    0.70067E-06   -0.38080E-05 11764   0.828E-02    0.127E-02
DAV:   7    -0.386193682948E+02    0.64707E-06   -0.82575E-06 12724   0.674E-02    0.550E-03
DAV:   8    -0.386193685194E+02   -0.22461E-06   -0.32899E-06 11424   0.190E-02    0.157E-03
DAV:   9    -0.386193685257E+02   -0.62578E-08   -0.44170E-07 12004   0.556E-03    0.935E-04
DAV:  10    -0.386193685139E+02    0.11783E-07   -0.84521E-08 10764   0.228E-03    0.263E-04
DAV:  11    -0.386193685087E+02    0.52537E-08   -0.14375E-08  6728   0.105E-03
   4 F= -.38619369E+02 E0= -.38606602E+02  d E =-.177799E-02
 trial-energy change:   -0.001778  1 .order   -0.001724   -0.006602    0.003154
 step:   0.6692(harm=  0.6622)  dis= 0.00552  next Energy=   -38.619865 (dE=-0.227E-02)
 bond charge predicted
       N       E                     dE             d eps       ncg     rms          rms(c)
DAV:   1    -0.386196052233E+02   -0.23671E-03   -0.18397E-01 10268   0.243E+00    0.144E-01
DAV:   2    -0.386199937668E+02   -0.38854E-03   -0.65401E-03 12336   0.694E-01    0.889E-02
DAV:   3    -0.386199004051E+02    0.93362E-04   -0.48609E-04 12076   0.236E-01    0.498E-02
DAV:   4    -0.386198628972E+02    0.37508E-04   -0.13326E-04 11936   0.159E-01    0.135E-02
DAV:   5    -0.386198657537E+02   -0.28565E-05   -0.39909E-05 11492   0.676E-02    0.747E-03
DAV:   6    -0.386198658033E+02   -0.49671E-07   -0.38208E-06 11620   0.299E-02    0.402E-03
DAV:   7    -0.386198658729E+02   -0.69520E-07   -0.96357E-07 12852   0.214E-02    0.169E-03
DAV:   8    -0.386198659524E+02   -0.79570E-07   -0.33635E-07 11564   0.666E-03    0.535E-04
DAV:   9    -0.386198659624E+02   -0.99762E-08   -0.59414E-08 10236   0.195E-03
   5 F= -.38619866E+02 E0= -.38607261E+02  d E =-.227544E-02
 curvature:  -0.47 expect dE=-0.997E-03 dE for cont linesearch -0.119E-08
 trial: gam= 0.32052 g(F)=  0.166E-02 g(S)=  0.476E-03 ort = 0.492E-05 (trialstep = 0.917E+00)
 search vector abs. value=  0.312E-02
 bond charge predicted
       N       E                     dE             d eps       ncg     rms          rms(c)
DAV:   1    -0.386214864945E+02   -0.16205E-02   -0.54255E-01  9856   0.407E+00    0.298E-01
DAV:   2    -0.386218633515E+02   -0.37686E-03   -0.17194E-02 12176   0.129E+00    0.167E-01
DAV:   3    -0.386214997681E+02    0.36358E-03   -0.12698E-03 11936   0.423E-01    0.830E-02
DAV:   4    -0.386213822690E+02    0.11750E-03   -0.33480E-04 12636   0.232E-01    0.159E-02
DAV:   5    -0.386213903791E+02   -0.81100E-05   -0.12882E-04 10680   0.100E-01    0.101E-02
DAV:   6    -0.386213906066E+02   -0.22757E-06   -0.10551E-05 14212   0.285E-02    0.583E-03
DAV:   7    -0.386213905257E+02    0.80971E-07   -0.14126E-06 13744   0.126E-02    0.327E-03
DAV:   8    -0.386213905955E+02   -0.69846E-07   -0.62577E-07 11264   0.905E-03    0.123E-03
DAV:   9    -0.386213905980E+02   -0.25043E-08   -0.19644E-07 13212   0.441E-03    0.612E-04
DAV:  10    -0.386213906051E+02   -0.71050E-08   -0.59252E-08 10696   0.182E-03
   6 F= -.38621391E+02 E0= -.38608742E+02  d E =-.152464E-02
 trial-energy change:   -0.001525  1 .order   -0.001524   -0.001959   -0.001089
 step:   2.0644(harm=  2.0644)  dis= 0.01142  next Energy=   -38.622071 (dE=-0.221E-02)
 bond charge predicted
       N       E                     dE             d eps       ncg     rms          rms(c)
DAV:   1    -0.386222221844E+02   -0.83159E-03   -0.85080E-01  9856   0.509E+00    0.373E-01
DAV:   2    -0.386228216859E+02   -0.59950E-03   -0.26982E-02 12192   0.162E+00    0.209E-01
DAV:   3    -0.386222532246E+02    0.56846E-03   -0.19877E-03 11932   0.532E-01    0.104E-01
DAV:   4    -0.386220691150E+02    0.18411E-03   -0.52567E-04 12640   0.290E-01    0.199E-02
DAV:   5    -0.386220818132E+02   -0.12698E-04   -0.20147E-04 10692   0.124E-01    0.126E-02
DAV:   6    -0.386220821201E+02   -0.30692E-06   -0.16134E-05 14188   0.354E-02    0.731E-03
DAV:   7    -0.386220819915E+02    0.12857E-06   -0.22550E-06 13656   0.164E-02    0.408E-03
DAV:   8    -0.386220820842E+02   -0.92680E-07   -0.98635E-07 11292   0.120E-02    0.154E-03
DAV:   9    -0.386220820837E+02    0.54160E-09   -0.31466E-07 13236   0.582E-03    0.770E-04
DAV:  10    -0.386220820936E+02   -0.99653E-08   -0.94697E-08 11268   0.236E-03
   7 F= -.38622082E+02 E0= -.38609381E+02  d E =-.221613E-02
 curvature:  -1.51 expect dE=-0.119E-02 dE for cont linesearch -0.694E-08
 trial: gam= 0.37228 g(F)=  0.498E-03 g(S)=  0.290E-03 ort = 0.379E-05 (trialstep = 0.115E+01)
 search vector abs. value=  0.122E-02
 bond charge predicted
       N       E                     dE             d eps       ncg     rms          rms(c)
DAV:   1    -0.386236963655E+02   -0.16143E-02   -0.27511E-01  9864   0.316E+00    0.316E-01
DAV:   2    -0.386231069867E+02    0.58938E-03   -0.11697E-02 12264   0.122E+00    0.179E-01
DAV:   3    -0.386226927269E+02    0.41426E-03   -0.10539E-03 12112   0.399E-01    0.833E-02
DAV:   4    -0.386225814401E+02    0.11129E-03   -0.33799E-04 11624   0.211E-01    0.183E-02
DAV:   5    -0.386225841276E+02   -0.26875E-05   -0.10521E-04 11564   0.880E-02    0.853E-03
DAV:   6    -0.386225848963E+02   -0.76872E-06   -0.12189E-05 11168   0.255E-02    0.547E-03
DAV:   7    -0.386225847117E+02    0.18457E-06   -0.14993E-06 13372   0.122E-02    0.297E-03
DAV:   8    -0.386225846758E+02    0.35943E-07   -0.53382E-07 11020   0.851E-03    0.109E-03
DAV:   9    -0.386225846592E+02    0.16569E-07   -0.13126E-07 13440   0.468E-03    0.626E-04
DAV:  10    -0.386225846524E+02    0.68608E-08   -0.28992E-08  9424   0.216E-03
   8 F= -.38622585E+02 E0= -.38609837E+02  d E =-.502559E-03
 trial-energy change:   -0.000503  1 .order   -0.000497   -0.000904   -0.000090
 step:   1.2666(harm=  1.2722)  dis= 0.00327  next Energy=   -38.622589 (dE=-0.507E-03)
 bond charge predicted
       N       E                     dE             d eps       ncg     rms          rms(c)
DAV:   1    -0.386226014904E+02   -0.16831E-04   -0.30405E-03  9904   0.333E-01    0.332E-02
DAV:   2    -0.386225949579E+02    0.65325E-05   -0.12981E-04 12256   0.130E-01    0.189E-02
DAV:   3    -0.386225906247E+02    0.43332E-05   -0.11749E-05 12144   0.424E-02    0.878E-03
DAV:   4    -0.386225895128E+02    0.11119E-05   -0.37556E-06 11616   0.222E-02    0.193E-03
DAV:   5    -0.386225895579E+02   -0.45125E-07   -0.11704E-06 11576   0.927E-03    0.896E-04
DAV:   6    -0.386225895656E+02   -0.77039E-08   -0.13516E-07 11124   0.275E-03    0.575E-04
DAV:   7    -0.386225895578E+02    0.78794E-08   -0.12579E-08  6040   0.142E-03
   9 F= -.38622590E+02 E0= -.38609837E+02  d E =-.507464E-03
 curvature:  -0.98 expect dE=-0.179E-03 dE for cont linesearch -0.311E-08
 trial: gam= 0.22641 g(F)=  0.145E-03 g(S)=  0.376E-04 ort = 0.197E-05 (trialstep = 0.117E+01)
 search vector abs. value=  0.246E-03
 bond charge predicted
       N       E                     dE             d eps       ncg     rms          rms(c)
DAV:   1    -0.386227787313E+02   -0.18917E-03   -0.63424E-02  9956   0.150E+00    0.118E-01
DAV:   2    -0.386227908316E+02   -0.12100E-04   -0.24770E-03 11608   0.539E-01    0.677E-02
DAV:   3    -0.386227412418E+02    0.49590E-04   -0.20824E-04 12532   0.190E-01    0.328E-02
DAV:   4    -0.386227229166E+02    0.18325E-04   -0.50848E-05 12400   0.991E-02    0.576E-03
DAV:   5    -0.386227241689E+02   -0.12523E-05   -0.18749E-05 10620   0.374E-02    0.312E-03
DAV:   6    -0.386227241855E+02   -0.16569E-07   -0.11414E-06 14588   0.130E-02    0.187E-03
DAV:   7    -0.386227241934E+02   -0.79617E-08   -0.22066E-07 13028   0.840E-03    0.670E-04
DAV:   8    -0.386227242006E+02   -0.71750E-08   -0.66965E-08 11308   0.320E-03
  10 F= -.38622724E+02 E0= -.38609954E+02  d E =-.134643E-03
 trial-energy change:   -0.000135  1 .order   -0.000135   -0.000214   -0.000056
 step:   1.5855(harm=  1.5855)  dis= 0.00134  next Energy=   -38.622734 (dE=-0.145E-03)
 bond charge predicted
       N       E                     dE             d eps       ncg     rms          rms(c)
DAV:   1    -0.386227411533E+02   -0.16960E-04   -0.79799E-03  9956   0.533E-01    0.419E-02
DAV:   2    -0.386227426937E+02   -0.15403E-05   -0.31091E-04 11616   0.191E-01    0.240E-02
DAV:   3    -0.386227362221E+02    0.64715E-05   -0.26171E-05 12508   0.673E-02    0.116E-02
DAV:   4    -0.386227338547E+02    0.23674E-05   -0.64106E-06 12440   0.353E-02    0.205E-03
DAV:   5    -0.386227339801E+02   -0.12542E-06   -0.23622E-06 10632   0.134E-02    0.111E-03
DAV:   6    -0.386227339881E+02   -0.80404E-08   -0.14619E-07 14164   0.467E-03    0.665E-04
DAV:   7    -0.386227339929E+02   -0.47726E-08   -0.24436E-08  7028   0.303E-03
  11 F= -.38622734E+02 E0= -.38609958E+02  d E =-.144435E-03
 curvature:  -1.07 expect dE=-0.156E-03 dE for cont linesearch -0.208E-08
 trial: gam= 0.81215 g(F)=  0.128E-03 g(S)=  0.183E-04 ort =-0.692E-06 (trialstep = 0.100E+01)
 search vector abs. value=  0.307E-03
 bond charge predicted
       N       E                     dE             d eps       ncg     rms          rms(c)
DAV:   1    -0.386228184743E+02   -0.84486E-04   -0.59893E-02 10068   0.143E+00    0.945E-02
DAV:   2    -0.386228651004E+02   -0.46626E-04   -0.18733E-03 11864   0.422E-01    0.515E-02
DAV:   3    -0.386228349589E+02    0.30141E-04   -0.14817E-04 13224   0.134E-01    0.250E-02
DAV:   4    -0.386228241081E+02    0.10851E-04   -0.30041E-05 12048   0.788E-02    0.435E-03
DAV:   5    -0.386228250298E+02   -0.92165E-06   -0.12033E-05 10680   0.339E-02    0.286E-03
DAV:   6    -0.386228250580E+02   -0.28203E-07   -0.10559E-06 12056   0.141E-02    0.197E-03
DAV:   7    -0.386228250205E+02    0.37495E-07   -0.17311E-07 12812   0.881E-03    0.891E-04
DAV:   8    -0.386228249973E+02    0.23156E-07   -0.85141E-08 11772   0.325E-03    0.273E-04
DAV:   9    -0.386228249969E+02    0.35561E-09   -0.14668E-08  6028   0.137E-03
  12 F= -.38622825E+02 E0= -.38610027E+02  d E =-.910040E-04
 trial-energy change:   -0.000091  1 .order   -0.000087   -0.000146   -0.000028
 step:   1.1973(harm=  1.2423)  dis= 0.00152  next Energy=   -38.622828 (dE=-0.938E-04)
 bond charge predicted
       N       E                     dE             d eps       ncg     rms          rms(c)
DAV:   1    -0.386228278307E+02   -0.28334E-05   -0.22670E-03 10096   0.279E-01    0.184E-02
DAV:   2    -0.386228295610E+02   -0.17303E-05   -0.71125E-05 11856   0.824E-02    0.100E-02
DAV:   3    -0.386228285066E+02    0.10544E-05   -0.56509E-06 13296   0.262E-02    0.488E-03
DAV:   4    -0.386228281208E+02    0.38576E-06   -0.11302E-06 12028   0.154E-02    0.854E-04
DAV:   5    -0.386228281517E+02   -0.30869E-07   -0.45524E-07 10684   0.659E-03    0.555E-04
DAV:   6    -0.386228281516E+02    0.25466E-10   -0.39379E-08  8776   0.275E-03
  13 F= -.38622828E+02 E0= -.38610026E+02  d E =-.941587E-04
 curvature:  -1.26 expect dE=-0.127E-03 dE for cont linesearch -0.744E-07
 trial: gam= 0.64809 g(F)=  0.707E-04 g(S)=  0.295E-04 ort = 0.425E-05 (trialstep = 0.104E+01)
 search vector abs. value=  0.235E-03
 bond charge predicted
       N       E                     dE             d eps       ncg     rms          rms(c)
DAV:   1    -0.386228803637E+02   -0.52212E-04   -0.49997E-02  9940   0.128E+00    0.852E-02
DAV:   2    -0.386229260954E+02   -0.45732E-04   -0.15446E-03 12312   0.323E-01    0.510E-02
DAV:   3    -0.386228853329E+02    0.40763E-04   -0.92410E-05 13580   0.920E-02    0.211E-02
DAV:   4    -0.386228784882E+02    0.68447E-05   -0.35060E-05 11948   0.544E-02    0.561E-03
DAV:   5    -0.386228790202E+02   -0.53201E-06   -0.80535E-06 10820   0.248E-02    0.305E-03
DAV:   6    -0.386228790241E+02   -0.38967E-08   -0.68853E-07 12408   0.104E-02    0.177E-03
DAV:   7    -0.386228790486E+02   -0.24512E-07   -0.22580E-07 12120   0.611E-03    0.717E-04
DAV:   8    -0.386228790562E+02   -0.75743E-08   -0.59812E-08 11368   0.267E-03
  14 F= -.38622879E+02 E0= -.38610125E+02  d E =-.509046E-04
 trial-energy change:   -0.000051  1 .order   -0.000051   -0.000107    0.000006
 step:   0.9888(harm=  0.9888)  dis= 0.00098  next Energy=   -38.622879 (dE=-0.509E-04)
 bond charge predicted
       N       E                     dE             d eps       ncg     rms          rms(c)
DAV:   1    -0.386228792070E+02   -0.15833E-06   -0.12715E-04 10004   0.645E-02    0.431E-03
DAV:   2    -0.386228793467E+02   -0.13977E-06   -0.39865E-06 12312   0.163E-02    0.258E-03
DAV:   3    -0.386228792236E+02    0.12309E-06   -0.22587E-07 13736   0.466E-03    0.106E-03
DAV:   4    -0.386228792089E+02    0.14706E-07   -0.87979E-08 11272   0.291E-03    0.276E-04
DAV:   5    -0.386228792029E+02    0.60754E-08   -0.19609E-08  5744   0.130E-03
  15 F= -.38622879E+02 E0= -.38610123E+02  d E =-.510512E-04
 curvature:  -1.13 expect dE=-0.909E-04 dE for cont linesearch -0.500E-10
 trial: gam= 0.85360 g(F)=  0.693E-04 g(S)=  0.113E-04 ort = 0.102E-06 (trialstep = 0.961E+00)
 search vector abs. value=  0.252E-03
 bond charge predicted
       N       E                     dE             d eps       ncg     rms          rms(c)
DAV:   1    -0.386229327309E+02   -0.53522E-04   -0.46867E-02  9932   0.131E+00    0.951E-02
DAV:   2    -0.386229563487E+02   -0.23618E-04   -0.19518E-03 11636   0.478E-01    0.501E-02
DAV:   3    -0.386229355429E+02    0.20806E-04   -0.15175E-04 13596   0.148E-01    0.248E-02
DAV:   4    -0.386229245264E+02    0.11017E-04   -0.26008E-05 12500   0.740E-02    0.545E-03
DAV:   5    -0.386229252209E+02   -0.69455E-06   -0.10709E-05 10604   0.258E-02    0.223E-03
DAV:   6    -0.386229252121E+02    0.88316E-08   -0.57343E-07 14308   0.655E-03    0.139E-03
DAV:   7    -0.386229251808E+02    0.31276E-07   -0.70505E-08 11732   0.456E-03    0.545E-04
DAV:   8    -0.386229251722E+02    0.86584E-08   -0.22715E-08  7204   0.268E-03
  16 F= -.38622925E+02 E0= -.38610157E+02  d E =-.459693E-04
 trial-energy change:   -0.000046  1 .order   -0.000052   -0.000078   -0.000026
 step:   1.4599(harm=  1.4599)  dis= 0.00163  next Energy=   -38.622938 (dE=-0.589E-04)
 bond charge predicted
       N       E                     dE             d eps       ncg     rms          rms(c)
DAV:   1    -0.386229341601E+02   -0.89793E-05   -0.12624E-02  9932   0.682E-01    0.493E-02
DAV:   2    -0.386229404456E+02   -0.62855E-05   -0.52577E-04 11636   0.249E-01    0.260E-02
DAV:   3    -0.386229350133E+02    0.54323E-05   -0.40907E-05 13600   0.769E-02    0.129E-02
DAV:   4    -0.386229321233E+02    0.28900E-05   -0.70433E-06 12476   0.384E-02    0.284E-03
DAV:   5    -0.386229323419E+02   -0.21859E-06   -0.28969E-06 10604   0.134E-02    0.116E-03
DAV:   6    -0.386229323365E+02    0.53788E-08   -0.15519E-07 14276   0.342E-03    0.725E-04
DAV:   7    -0.386229323232E+02    0.13316E-07   -0.15587E-08  6220   0.242E-03    0.296E-04
DAV:   8    -0.386229323183E+02    0.49367E-08   -0.10373E-08  5868   0.168E-03
  17 F= -.38622932E+02 E0= -.38610158E+02  d E =-.531154E-04
 curvature:  -2.28 expect dE=-0.126E-03 dE for cont linesearch -0.395E-09
 trial: gam= 0.63260 g(F)=  0.328E-04 g(S)=  0.225E-04 ort = 0.209E-06 (trialstep = 0.106E+01)
 search vector abs. value=  0.156E-03
 bond charge predicted
       N       E                     dE             d eps       ncg     rms          rms(c)
DAV:   1    -0.386230064329E+02   -0.74110E-04   -0.34424E-02 10128   0.115E+00    0.905E-02
DAV:   2    -0.386229998244E+02    0.66085E-05   -0.15538E-03 11584   0.450E-01    0.456E-02
DAV:   3    -0.386229795633E+02    0.20261E-04   -0.11836E-04 13068   0.129E-01    0.228E-02
DAV:   4    -0.386229696093E+02    0.99541E-05   -0.21991E-05 13136   0.671E-02    0.481E-03
DAV:   5    -0.386229699550E+02   -0.34571E-06   -0.84736E-06 10624   0.278E-02    0.237E-03
DAV:   6    -0.386229699778E+02   -0.22847E-07   -0.78557E-07 12276   0.139E-02    0.134E-03
DAV:   7    -0.386229699842E+02   -0.63865E-08   -0.11664E-07 11520   0.638E-03    0.636E-04
DAV:   8    -0.386229700050E+02   -0.20818E-07   -0.45430E-08  9664   0.221E-03    0.193E-04
DAV:   9    -0.386229700058E+02   -0.72123E-09   -0.12371E-08  5856   0.111E-03
  18 F= -.38622970E+02 E0= -.38610191E+02  d E =-.376875E-04
 trial-energy change:   -0.000038  1 .order   -0.000037   -0.000059   -0.000014
 step:   1.3457(harm=  1.4020)  dis= 0.00141  next Energy=   -38.622972 (dE=-0.396E-04)
 bond charge predicted
       N       E                     dE             d eps       ncg     rms          rms(c)
DAV:   1    -0.386229749340E+02   -0.49290E-05   -0.24793E-03 10140   0.308E-01    0.243E-02
DAV:   2    -0.386229744443E+02    0.48976E-06   -0.11141E-04 11592   0.120E-01    0.122E-02
DAV:   3    -0.386229728435E+02    0.16007E-05   -0.84882E-06 13064   0.345E-02    0.610E-03
DAV:   4    -0.386229720403E+02    0.80323E-06   -0.15803E-06 13152   0.180E-02    0.129E-03
DAV:   5    -0.386229720468E+02   -0.64633E-08   -0.61059E-07 10624   0.744E-03    0.633E-04
DAV:   6    -0.386229720489E+02   -0.21428E-08   -0.54017E-08  9236   0.369E-03
  19 F= -.38622972E+02 E0= -.38610192E+02  d E =-.397306E-04
 curvature:  -1.92 expect dE=-0.401E-04 dE for cont linesearch -0.102E-07
 trial: gam= 0.37415 g(F)=  0.184E-04 g(S)=  0.249E-05 ort = 0.912E-06 (trialstep = 0.112E+01)
 search vector abs. value=  0.434E-04
 bond charge predicted
       N       E                     dE             d eps       ncg     rms          rms(c)
DAV:   1    -0.386229847464E+02   -0.12700E-04   -0.11186E-02 10120   0.608E-01    0.336E-02
DAV:   2    -0.386229951063E+02   -0.10360E-04   -0.30511E-04 11556   0.176E-01    0.175E-02
DAV:   3    -0.386229917894E+02    0.33169E-05   -0.24343E-05 12892   0.555E-02    0.895E-03
DAV:   4    -0.386229902466E+02    0.15428E-05   -0.44821E-06 12200   0.316E-02    0.193E-03
DAV:   5    -0.386229903298E+02   -0.83148E-07   -0.17433E-06 10692   0.129E-02    0.985E-04
DAV:   6    -0.386229903374E+02   -0.76511E-08   -0.15180E-07 12416   0.513E-03    0.669E-04
DAV:   7    -0.386229903423E+02   -0.48567E-08   -0.24033E-08  7796   0.356E-03
  20 F= -.38622990E+02 E0= -.38610197E+02  d E =-.182934E-04
 trial-energy change:   -0.000018  1 .order   -0.000018   -0.000024   -0.000012
 step:   1.9413(harm=  2.2646)  dis= 0.00120  next Energy=   -38.622995 (dE=-0.229E-04)
 bond charge predicted
       N       E                     dE             d eps       ncg     rms          rms(c)
DAV:   1    -0.386229933999E+02   -0.30625E-05   -0.60711E-03 10128   0.448E-01    0.247E-02
DAV:   2    -0.386229990396E+02   -0.56397E-05   -0.16546E-04 11556   0.129E-01    0.129E-02
DAV:   3    -0.386229971887E+02    0.18508E-05   -0.13209E-05 12896   0.408E-02    0.659E-03
DAV:   4    -0.386229963415E+02    0.84728E-06   -0.24455E-06 12188   0.233E-02    0.142E-03
DAV:   5    -0.386229963803E+02   -0.38888E-07   -0.95147E-07 10688   0.952E-03    0.730E-04
DAV:   6    -0.386229963855E+02   -0.51086E-08   -0.81912E-08 11308   0.375E-03
  21 F= -.38622996E+02 E0= -.38610193E+02  d E =-.243365E-04
 curvature:  -2.13 expect dE=-0.226E-04 dE for cont linesearch -0.466E-06
 ZBRENT: extrapolating
 opt :   2.2724  next Energy=   -38.622997 (dE=-0.248E-04)
 bond charge predicted
       N       E                     dE             d eps       ncg     rms          rms(c)
DAV:   1    -0.386229965859E+02   -0.20554E-06   -0.98205E-04 10136   0.180E-01    0.999E-03
DAV:   2    -0.386229975271E+02   -0.94123E-06   -0.26831E-05 11560   0.523E-02    0.521E-03
DAV:   3    -0.386229971873E+02    0.33980E-06   -0.21507E-06 12876   0.167E-02    0.266E-03
DAV:   4    -0.386229970403E+02    0.14706E-06   -0.39454E-07 12204   0.962E-03    0.577E-04
DAV:   5    -0.386229970416E+02   -0.13601E-08   -0.15275E-07 10656   0.403E-03    0.294E-04
DAV:   6    -0.386229970427E+02   -0.10382E-08   -0.13950E-08  5960   0.171E-03
  22 F= -.38622997E+02 E0= -.38610190E+02  d E =-.249938E-04
 curvature:  -2.33 expect dE=-0.321E-04 dE for cont linesearch -0.918E-09
 trial: gam= 0.69430 g(F)=  0.837E-05 g(S)=  0.537E-05 ort = 0.131E-06 (trialstep = 0.135E+01)
 search vector abs. value=  0.349E-04
 bond charge predicted
       N       E                     dE             d eps       ncg     rms          rms(c)
DAV:   1    -0.386230245715E+02   -0.27530E-04   -0.12833E-02 10128   0.692E-01    0.517E-02
DAV:   2    -0.386230183894E+02    0.61821E-05   -0.49624E-04 11476   0.270E-01    0.245E-02
DAV:   3    -0.386230116471E+02    0.67423E-05   -0.37770E-05 12704   0.747E-02    0.122E-02
DAV:   4    -0.386230087388E+02    0.29083E-05   -0.73335E-06 13204   0.375E-02    0.267E-03
DAV:   5    -0.386230089209E+02   -0.18210E-06   -0.27572E-06 10628   0.144E-02    0.121E-03
DAV:   6    -0.386230089049E+02    0.15998E-07   -0.18288E-07 12856   0.601E-03    0.759E-04
DAV:   7    -0.386230088802E+02    0.24756E-07   -0.36642E-08  9424   0.402E-03    0.287E-04
DAV:   8    -0.386230088701E+02    0.10058E-07   -0.13873E-08  5836   0.129E-03    0.115E-04
DAV:   9    -0.386230088711E+02   -0.97998E-09   -0.53181E-09  5660   0.707E-04
  23 F= -.38623009E+02 E0= -.38610206E+02  d E =-.118284E-04
 trial-energy change:   -0.000012  1 .order   -0.000012   -0.000019   -0.000005
 step:   1.8873(harm=  1.8632)  dis= 0.00092  next Energy=   -38.623010 (dE=-0.129E-04)
 bond charge predicted
       N       E                     dE             d eps       ncg     rms          rms(c)
DAV:   1    -0.386230122021E+02   -0.33320E-05   -0.20459E-03 10132   0.276E-01    0.207E-02
DAV:   2    -0.386230111633E+02    0.10388E-05   -0.79104E-05 11488   0.108E-01    0.978E-03
DAV:   3    -0.386230101810E+02    0.98230E-06   -0.60296E-06 12700   0.299E-02    0.486E-03
DAV:   4    -0.386230097547E+02    0.42624E-06   -0.11702E-06 13208   0.150E-02    0.107E-03
DAV:   5    -0.386230097922E+02   -0.37503E-07   -0.44033E-07 10640   0.578E-03    0.484E-04
DAV:   6    -0.386230097867E+02    0.55843E-08   -0.28525E-08  8580   0.246E-03
  24 F= -.38623010E+02 E0= -.38610209E+02  d E =-.127440E-04
 curvature:  -2.34 expect dE=-0.370E-04 dE for cont linesearch -0.244E-07
 trial: gam= 1.20395 g(F)=  0.112E-04 g(S)=  0.461E-05 ort =-0.603E-06 (trialstep = 0.783E+00)
 search vector abs. value=  0.649E-04
 bond charge predicted
       N       E                     dE             d eps       ncg     rms          rms(c)
DAV:   1    -0.386230109188E+02   -0.11265E-05   -0.83478E-03  9988   0.516E-01    0.264E-02
DAV:   2    -0.386230202924E+02   -0.93736E-05   -0.20535E-04 11736   0.134E-01    0.150E-02
DAV:   3    -0.386230174870E+02    0.28054E-05   -0.15605E-05 13028   0.465E-02    0.779E-03
DAV:   4    -0.386230164574E+02    0.10297E-05   -0.36303E-06 11900   0.229E-02    0.176E-03
DAV:   5    -0.386230165317E+02   -0.74314E-07   -0.10046E-06 10796   0.847E-03    0.949E-04
DAV:   6    -0.386230165343E+02   -0.26080E-08   -0.91941E-08 11740   0.487E-03
  25 F= -.38623017E+02 E0= -.38610227E+02  d E =-.674763E-05
 trial-energy change:   -0.000007  1 .order   -0.000007   -0.000012   -0.000001
 step:   0.8749(harm=  0.8852)  dis= 0.00058  next Energy=   -38.623017 (dE=-0.683E-05)
 bond charge predicted
       N       E                     dE             d eps       ncg     rms          rms(c)
DAV:   1    -0.386230165990E+02   -0.67334E-07   -0.11629E-04 10008   0.610E-02    0.319E-03
DAV:   2    -0.386230167408E+02   -0.14179E-06   -0.29334E-06 11780   0.164E-02    0.180E-03
DAV:   3    -0.386230166849E+02    0.55923E-07   -0.22986E-07 12996   0.631E-03    0.940E-04
DAV:   4    -0.386230166646E+02    0.20302E-07   -0.56391E-08 10772   0.320E-03    0.243E-04
DAV:   5    -0.386230166676E+02   -0.30418E-08   -0.13263E-08  5780   0.147E-03
  26 F= -.38623017E+02 E0= -.38610228E+02  d E =-.688096E-05
 curvature:  -1.89 expect dE=-0.201E-04 dE for cont linesearch -0.489E-08
 trial: gam= 0.60310 g(F)=  0.884E-05 g(S)=  0.180E-05 ort = 0.410E-06 (trialstep = 0.801E+00)
 search vector abs. value=  0.347E-04
 bond charge predicted
       N       E                     dE             d eps       ncg     rms          rms(c)
DAV:   1    -0.386230163826E+02    0.28195E-06   -0.48916E-03  9880   0.386E-01    0.180E-02
DAV:   2    -0.386230241015E+02   -0.77189E-05   -0.12092E-04 11632   0.889E-02    0.103E-02
DAV:   3    -0.386230228502E+02    0.12513E-05   -0.67443E-06 12060   0.306E-02    0.558E-03
DAV:   4    -0.386230223639E+02    0.48629E-06   -0.18617E-06 12576   0.191E-02    0.114E-03
DAV:   5    -0.386230223890E+02   -0.25108E-07   -0.61271E-07 10764   0.717E-03    0.666E-04
DAV:   6    -0.386230223821E+02    0.68894E-08   -0.31635E-08  8652   0.175E-03
  27 F= -.38623022E+02 E0= -.38610219E+02  d E =-.571451E-05
 trial-energy change:   -0.000006  1 .order   -0.000005   -0.000009   -0.000002
 step:   1.0068(harm=  1.0687)  dis= 0.00059  next Energy=   -38.623023 (dE=-0.600E-05)
 bond charge predicted
       N       E                     dE             d eps       ncg     rms          rms(c)
DAV:   1    -0.386230224133E+02   -0.24278E-07   -0.32332E-04  9900   0.993E-02    0.464E-03
DAV:   2    -0.386230229535E+02   -0.54016E-06   -0.80932E-06 11668   0.231E-02    0.269E-03
DAV:   3    -0.386230228507E+02    0.10275E-06   -0.45689E-07 12068   0.807E-03    0.145E-03
DAV:   4    -0.386230228239E+02    0.26850E-07   -0.12509E-07 12528   0.500E-03    0.292E-04
DAV:   5    -0.386230228224E+02    0.14879E-08   -0.41290E-08 10104   0.192E-03
  28 F= -.38623023E+02 E0= -.38610216E+02  d E =-.615475E-05
 curvature:  -1.61 expect dE=-0.458E-05 dE for cont linesearch -0.337E-07
 trial: gam= 0.25073 g(F)=  0.256E-05 g(S)=  0.279E-06 ort = 0.852E-06 (trialstep = 0.842E+00)
 search vector abs. value=  0.545E-05
 bond charge predicted
       N       E                     dE             d eps       ncg     rms          rms(c)
DAV:   1    -0.386230238971E+02   -0.10732E-05   -0.87556E-04  9856   0.155E-01    0.621E-03
DAV:   2    -0.386230252937E+02   -0.13966E-05   -0.18195E-05 11328   0.292E-02    0.354E-03
DAV:   3    -0.386230251553E+02    0.13838E-06   -0.53783E-07 13316   0.552E-03    0.195E-03
DAV:   4    -0.386230250865E+02    0.68780E-07   -0.17444E-07 11740   0.411E-03    0.433E-04
DAV:   5    -0.386230250968E+02   -0.10296E-07   -0.71515E-08 10648   0.235E-03    0.297E-04
DAV:   6    -0.386230250973E+02   -0.48522E-09   -0.67676E-09  5908   0.814E-04
  29 F= -.38623025E+02 E0= -.38610222E+02  d E =-.227493E-05
 trial-energy change:   -0.000002  1 .order   -0.000002   -0.000003   -0.000002
 step:   3.2398(harm=  3.2398)  dis= 0.00089  next Energy=   -38.623028 (dE=-0.495E-05)
 bond charge predicted
       N       E                     dE             d eps       ncg     rms          rms(c)
DAV:   1    -0.386230184745E+02    0.66223E-05   -0.70908E-03  9856   0.440E-01    0.176E-02
DAV:   2    -0.386230297323E+02   -0.11258E-04   -0.14700E-04 11376   0.831E-02    0.101E-02
DAV:   3    -0.386230285392E+02    0.11932E-05   -0.43229E-06 13256   0.163E-02    0.557E-03
DAV:   4    -0.386230279868E+02    0.55236E-06   -0.14895E-06 11884   0.142E-02    0.136E-03
DAV:   5    -0.386230280333E+02   -0.46473E-07   -0.57056E-07 10892   0.827E-03    0.833E-04
DAV:   6    -0.386230280385E+02   -0.52323E-08   -0.85931E-08 12168   0.251E-03
  30 F= -.38623028E+02 E0= -.38610236E+02  d E =-.521613E-05
 curvature:  -2.89 expect dE=-0.979E-05 dE for cont linesearch -0.491E-08
 trial: gam= 1.28020 g(F)=  0.276E-05 g(S)=  0.632E-06 ort = 0.962E-07 (trialstep = 0.573E+00)
 search vector abs. value=  0.126E-04
 bond charge predicted
       N       E                     dE             d eps       ncg     rms          rms(c)
DAV:   1    -0.386230290143E+02   -0.98107E-06   -0.88933E-04  9872   0.170E-01    0.114E-02
DAV:   2    -0.386230297525E+02   -0.73819E-06   -0.30737E-05 12160   0.596E-02    0.573E-03
DAV:   3    -0.386230294806E+02    0.27193E-06   -0.20107E-06 12148   0.161E-02    0.299E-03
DAV:   4    -0.386230293607E+02    0.11989E-06   -0.41872E-07 12236   0.909E-03    0.609E-04
DAV:   5    -0.386230293735E+02   -0.12789E-07   -0.15553E-07 10684   0.353E-03    0.330E-04
DAV:   6    -0.386230293717E+02    0.18276E-08   -0.10581E-08  6008   0.153E-03
  31 F= -.38623029E+02 E0= -.38610237E+02  d E =-.133318E-05
 trial-energy change:   -0.000001  1 .order   -0.000001   -0.000002   -0.000001
 step:   0.7410(harm=  0.7879)  dis= 0.00029  next Energy=   -38.623029 (dE=-0.141E-05)
 bond charge predicted
       N       E                     dE             d eps       ncg     rms          rms(c)
DAV:   1    -0.386230294431E+02   -0.69600E-07   -0.76343E-05  9872   0.499E-02    0.335E-03
DAV:   2    -0.386230295010E+02   -0.57849E-07   -0.26346E-06 12208   0.175E-02    0.169E-03
DAV:   3    -0.386230294948E+02    0.61336E-08   -0.16967E-07 11804   0.469E-03    0.884E-04
DAV:   4    -0.386230294962E+02   -0.13379E-08   -0.35920E-08 10276   0.264E-03
  32 F= -.38623029E+02 E0= -.38610238E+02  d E =-.145766E-05
 curvature:  -1.34 expect dE=-0.348E-05 dE for cont linesearch -0.109E-07
 trial: gam= 0.70344 g(F)=  0.160E-05 g(S)=  0.989E-06 ort = 0.320E-06 (trialstep = 0.607E+00)
 search vector abs. value=  0.926E-05
 bond charge predicted
       N       E                     dE             d eps       ncg     rms          rms(c)
DAV:   1    -0.386230313662E+02   -0.18714E-05   -0.72025E-04  9896   0.157E-01    0.117E-02
DAV:   2    -0.386230314311E+02   -0.64924E-07   -0.26563E-05 11788   0.541E-02    0.603E-03
DAV:   3    -0.386230309713E+02    0.45987E-06   -0.16850E-06 12780   0.161E-02    0.301E-03
DAV:   4    -0.386230307616E+02    0.20972E-06   -0.39002E-07 13080   0.844E-03    0.637E-04
DAV:   5    -0.386230307596E+02    0.19836E-08   -0.15144E-07 10664   0.318E-03    0.287E-04
DAV:   6    -0.386230307618E+02   -0.22465E-08   -0.79912E-09  5864   0.891E-04
  33 F= -.38623031E+02 E0= -.38610243E+02  d E =-.126565E-05
 trial-energy change:   -0.000001  1 .order   -0.000001   -0.000002   -0.000001
 step:   1.2033(harm=  1.2033)  dis= 0.00035  next Energy=   -38.623031 (dE=-0.169E-05)
 bond charge predicted
       N       E                     dE             d eps       ncg     rms          rms(c)
DAV:   1    -0.386230319246E+02   -0.11651E-05   -0.69648E-04  9896   0.154E-01    0.115E-02
DAV:   2    -0.386230319866E+02   -0.61965E-07   -0.25690E-05 11804   0.531E-02    0.594E-03
DAV:   3    -0.386230315380E+02    0.44858E-06   -0.16229E-06 12692   0.159E-02    0.296E-03
DAV:   4    -0.386230313343E+02    0.20375E-06   -0.38071E-07 13028   0.831E-03    0.624E-04
DAV:   5    -0.386230313335E+02    0.77853E-09   -0.14704E-07 10660   0.318E-03    0.285E-04
DAV:   6    -0.386230313362E+02   -0.26826E-08   -0.80913E-09  5868   0.959E-04
  34 F= -.38623031E+02 E0= -.38610248E+02  d E =-.184000E-05
 curvature:  -1.98 expect dE=-0.141E-05 dE for cont linesearch -0.159E-07
 trial: gam= 0.21048 g(F)=  0.574E-06 g(S)=  0.137E-06 ort = 0.272E-06 (trialstep = 0.726E+00)
 search vector abs. value=  0.124E-05
 bond charge predicted
       N       E                     dE             d eps       ncg     rms          rms(c)
DAV:   1    -0.386230317925E+02   -0.45897E-06   -0.12563E-04 10000   0.665E-02    0.477E-03
DAV:   2    -0.386230318251E+02   -0.32644E-07   -0.46250E-06 11868   0.241E-02    0.248E-03
DAV:   3    -0.386230317950E+02    0.30109E-07   -0.42545E-07 12312   0.802E-03    0.129E-03
DAV:   4    -0.386230317707E+02    0.24294E-07   -0.87452E-08 11896   0.405E-03    0.216E-04
DAV:   5    -0.386230317762E+02   -0.55129E-08   -0.32024E-08  8204   0.147E-03
  35 F= -.38623032E+02 E0= -.38610250E+02  d E =-.440046E-06
 trial-energy change:   -0.000000  1 .order   -0.000000   -0.000001   -0.000000
 step:   1.6820(harm=  1.6820)  dis= 0.00018  next Energy=   -38.623032 (dE=-0.646E-06)
 bond charge predicted
       N       E                     dE             d eps       ncg     rms          rms(c)
DAV:   1    -0.386230320420E+02   -0.27127E-06   -0.21759E-04 10012   0.874E-02    0.629E-03
DAV:   2    -0.386230321033E+02   -0.61353E-07   -0.79586E-06 11852   0.316E-02    0.327E-03
DAV:   3    -0.386230320318E+02    0.71529E-07   -0.73603E-07 12320   0.106E-02    0.170E-03
DAV:   4    -0.386230319838E+02    0.47997E-07   -0.15151E-07 12184   0.533E-03    0.283E-04
DAV:   5    -0.386230319919E+02   -0.81086E-08   -0.56608E-08 10496   0.195E-03
  36 F= -.38623032E+02 E0= -.38610252E+02  d E =-.655734E-06
 curvature:  -1.35 expect dE=-0.542E-06 dE for cont linesearch -0.162E-09
 trial: gam= 0.64080 g(F)=  0.311E-06 g(S)=  0.897E-07 ort = 0.122E-07 (trialstep = 0.917E+00)
 search vector abs. value=  0.924E-06
 bond charge predicted
       N       E                     dE             d eps       ncg     rms          rms(c)
DAV:   1    -0.386230321999E+02   -0.21616E-06   -0.15892E-04 10056   0.710E-02    0.379E-03
DAV:   2    -0.386230323836E+02   -0.18365E-06   -0.41371E-06 11992   0.195E-02    0.223E-03
DAV:   3    -0.386230323132E+02    0.70356E-07   -0.30469E-07 12332   0.614E-03    0.117E-03
DAV:   4    -0.386230322837E+02    0.29490E-07   -0.71100E-08 12116   0.366E-03    0.288E-04
DAV:   5    -0.386230322777E+02    0.59972E-08   -0.20717E-08  6104   0.149E-03
  37 F= -.38623032E+02 E0= -.38610248E+02  d E =-.285854E-06
 trial-energy change:   -0.000000  1 .order   -0.000000   -0.000000   -0.000000
 step:   1.5788(harm=  1.5788)  dis= 0.00018  next Energy=   -38.623032 (dE=-0.322E-06)
 bond charge predicted
       N       E                     dE             d eps       ncg     rms          rms(c)
DAV:   1    -0.386230323161E+02   -0.32308E-07   -0.82660E-05 10056   0.512E-02    0.275E-03
DAV:   2    -0.386230324157E+02   -0.99672E-07   -0.21421E-06 12048   0.139E-02    0.161E-03
DAV:   3    -0.386230323734E+02    0.42364E-07   -0.15770E-07 12176   0.427E-03    0.841E-04
DAV:   4    -0.386230323574E+02    0.15992E-07   -0.34007E-08  9544   0.257E-03    0.209E-04
DAV:   5    -0.386230323533E+02    0.40536E-08   -0.12925E-08  5716   0.106E-03
  38 F= -.38623032E+02 E0= -.38610245E+02  d E =-.361420E-06
 curvature:  -1.79 expect dE=-0.719E-06 dE for cont linesearch -0.377E-09
 trial: gam= 0.97572 g(F)=  0.303E-06 g(S)=  0.995E-07 ort = 0.140E-07 (trialstep = 0.741E+00)
 search vector abs. value=  0.131E-05
 bond charge predicted
       N       E                     dE             d eps       ncg     rms          rms(c)
DAV:   1    -0.386230327476E+02   -0.39025E-06   -0.14863E-04 10412   0.753E-02    0.572E-03
DAV:   2    -0.386230327267E+02    0.20938E-07   -0.64749E-06 11604   0.312E-02    0.267E-03
DAV:   3    -0.386230326146E+02    0.11213E-06   -0.48423E-07 13236   0.825E-03    0.134E-03
DAV:   4    -0.386230325535E+02    0.61072E-07   -0.71762E-08 11632   0.385E-03    0.348E-04
DAV:   5    -0.386230325472E+02    0.63073E-08   -0.31220E-08  8608   0.137E-03
  39 F= -.38623033E+02 E0= -.38610245E+02  d E =-.193859E-06
 trial-energy change:   -0.000000  1 .order   -0.000000   -0.000000   -0.000000
 step:   0.8757(harm=  0.8757)  dis= 0.00013  next Energy=   -38.623033 (dE=-0.182E-06)
 bond charge predicted
       N       E                     dE             d eps       ncg     rms          rms(c)
DAV:   1    -0.386230325727E+02   -0.19183E-07   -0.49552E-06 10480   0.138E-02    0.106E-03
DAV:   2    -0.386230325767E+02   -0.40441E-08   -0.21780E-07 11672   0.570E-03    0.494E-04
DAV:   3    -0.386230325654E+02    0.11290E-07   -0.13612E-08  6548   0.151E-03    0.248E-04
DAV:   4    -0.386230325605E+02    0.49449E-08   -0.41799E-09  5392   0.909E-04
  40 F= -.38623033E+02 E0= -.38610245E+02  d E =-.207159E-06
 curvature:  -1.38 expect dE=-0.570E-06 dE for cont linesearch -0.356E-09
 trial: gam= 1.05767 g(F)=  0.162E-06 g(S)=  0.252E-06 ort =-0.184E-07 (trialstep = 0.547E+00)
 search vector abs. value=  0.184E-05
 bond charge predicted
       N       E                     dE             d eps       ncg     rms          rms(c)
DAV:   1    -0.386230327293E+02   -0.16386E-06   -0.11505E-04  9884   0.595E-02    0.384E-03
DAV:   2    -0.386230327322E+02   -0.29113E-08   -0.31116E-06 11712   0.195E-02    0.191E-03
DAV:   3    -0.386230327261E+02    0.60622E-08   -0.23918E-07 12072   0.568E-03    0.972E-04
DAV:   4    -0.386230327247E+02    0.14811E-08   -0.46719E-08 10168   0.291E-03
  41 F= -.38623033E+02 E0= -.38610246E+02  d E =-.164177E-06
 trial-energy change:   -0.000000  1 .order   -0.000000   -0.000000   -0.000000
 step:   0.9585(harm=  0.9585)  dis= 0.00017  next Energy=   -38.623033 (dE=-0.189E-06)
 bond charge predicted
       N       E                     dE             d eps       ncg     rms          rms(c)
DAV:   1    -0.386230328044E+02   -0.78218E-07   -0.65455E-05  9888   0.451E-02    0.292E-03
DAV:   2    -0.386230328035E+02    0.86220E-09   -0.17752E-06 11664   0.147E-02    0.146E-03
DAV:   3    -0.386230328053E+02   -0.17790E-08   -0.14061E-07 11900   0.434E-03    0.740E-04
DAV:   4    -0.386230328050E+02    0.23465E-09   -0.24116E-08  7672   0.224E-03
  42 F= -.38623033E+02 E0= -.38610246E+02  d E =-.244559E-06
 curvature:  -2.24 expect dE=-0.475E-06 dE for cont linesearch -0.155E-07
 trial: gam= 0.00000 g(F)=  0.104E-06 g(S)=  0.109E-06 ort = 0.113E-06 (trialstep = 0.629E+00)
 search vector abs. value=  0.212E-06
 bond charge predicted
       N       E                     dE             d eps       ncg     rms          rms(c)
DAV:   1    -0.386230331621E+02   -0.35688E-06   -0.13956E-05 12972   0.334E-02    0.401E-03
DAV:   2    -0.386230329683E+02    0.19388E-06   -0.16765E-06 12424   0.176E-02    0.179E-03
DAV:   3    -0.386230328971E+02    0.71170E-07   -0.14635E-07 13356   0.439E-03    0.857E-04
DAV:   4    -0.386230328633E+02    0.33827E-07   -0.21033E-08  7288   0.232E-03    0.237E-04
DAV:   5    -0.386230328533E+02    0.99690E-08   -0.15141E-08  5612   0.118E-03
  43 F= -.38623033E+02 E0= -.38610245E+02  d E =-.482692E-07
 trial-energy change:   -0.000000  1 .order   -0.000000   -0.000000   -0.000000
 step:   0.7575(harm=  0.7575)  dis= 0.00003  next Energy=   -38.623033 (dE=-0.804E-07)
 bond charge predicted
       N       E                     dE             d eps       ncg     rms          rms(c)
DAV:   1    -0.386230328742E+02   -0.10943E-07   -0.57113E-07 12756   0.672E-03    0.826E-04
DAV:   2    -0.386230328678E+02    0.64260E-08   -0.68714E-08  9772   0.362E-03
  44 F= -.38623033E+02 E0= -.38610244E+02  d E =-.627547E-07
 curvature:  -0.38 expect dE=-0.766E-07 dE for cont linesearch -0.107E-08
 trial: gam= 1.06852 g(F)=  0.379E-07 g(S)=  0.164E-06 ort =-0.245E-07 (trialstep = 0.354E+00)
 search vector abs. value=  0.392E-06
 reached required accuracy - stopping structural energy minimisation
 writing wavefunctions
Wed Jan  5 23:41:45 CST 2022
