Thu Jan  6 01:08:29 CST 2022
 running on   48 total cores
 distrk:  each k-point on   48 cores,    1 groups
 distr:  one band on   24 cores,    2 groups
 using from now: INCAR     
 vasp.5.3.5 31Mar14 (build Jan 11 2016 19:50:55) complex                        
  
 POSCAR found type information on POSCAR  Zn Ga N  O 
 POSCAR found :  4 types and       8 ions
 scaLAPACK will be used

 ----------------------------------------------------------------------------- 
|                                                                             |
|           W    W    AA    RRRRR   N    N  II  N    N   GGGG   !!!           |
|           W    W   A  A   R    R  NN   N  II  NN   N  G    G  !!!           |
|           W    W  A    A  R    R  N N  N  II  N N  N  G       !!!           |
|           W WW W  AAAAAA  RRRRR   N  N N  II  N  N N  G  GGG   !            |
|           WW  WW  A    A  R   R   N   NN  II  N   NN  G    G                |
|           W    W  A    A  R    R  N    N  II  N    N   GGGG   !!!           |
|                                                                             |
|      For optimal performance we recommend to set                            |
|        NCORE= 4 - approx SQRT( number of cores)                             |
|      NCORE specifies how many cores store one orbital (NPAR=cpu/NCORE).     |
|      This setting can  greatly improve the performance of VASP for DFT.     |
|      The default, NPAR=number of cores might be grossly inefficient         |
|      on modern multi-core architectures or massively parallel machines.     |
|      Do your own testing !!!!                                               |
|      Unfortunately you need to use the default for GW and RPA calculations. |
|      (for HF NCORE is supported but not extensively tested yet)             |
|                                                                             |
 ----------------------------------------------------------------------------- 

 LDA part: xc-table for Pade appr. of Perdew
 POSCAR, INCAR and KPOINTS ok, starting setup
 WARNING: small aliasing (wrap around) errors must be expected
 FFT: planning ...
 WAVECAR not read
 entering main loop
       N       E                     dE             d eps       ncg     rms          rms(c)
DAV:   1     0.885582583067E+03    0.88558E+03   -0.41285E+04 10160   0.320E+03
DAV:   2     0.141808508619E+03   -0.74377E+03   -0.71550E+03  9936   0.757E+02
DAV:   3    -0.280173710056E+02   -0.16983E+03   -0.16512E+03 11408   0.260E+02
DAV:   4    -0.431920482206E+02   -0.15175E+02   -0.14964E+02 11972   0.780E+01
DAV:   5    -0.437074804374E+02   -0.51543E+00   -0.51327E+00 12204   0.139E+01    0.156E+01
DAV:   6    -0.376432855357E+02    0.60642E+01   -0.32995E+01 18908   0.763E+01    0.826E+00
DAV:   7    -0.377860831857E+02   -0.14280E+00   -0.81143E+00 10676   0.235E+01    0.550E+00
DAV:   8    -0.377187815888E+02    0.67302E-01   -0.10753E+00 14416   0.104E+01    0.306E+00
DAV:   9    -0.377198896394E+02   -0.11081E-02   -0.38372E-01 13304   0.729E+00    0.102E+00
DAV:  10    -0.377023100471E+02    0.17580E-01   -0.81388E-02 14640   0.474E+00    0.349E-01
DAV:  11    -0.377034839069E+02   -0.11739E-02   -0.32564E-02 12928   0.154E+00    0.212E-01
DAV:  12    -0.377038550606E+02   -0.37115E-03   -0.52680E-03 13316   0.753E-01    0.802E-02
DAV:  13    -0.377040505347E+02   -0.19547E-03   -0.10531E-03 10832   0.310E-01    0.277E-02
DAV:  14    -0.377041394787E+02   -0.88944E-04   -0.17045E-04 11664   0.117E-01    0.180E-02
DAV:  15    -0.377041615601E+02   -0.22081E-04   -0.41222E-05 10824   0.748E-02    0.579E-03
DAV:  16    -0.377041685387E+02   -0.69785E-05   -0.14693E-05 11064   0.406E-02    0.313E-03
DAV:  17    -0.377041689511E+02   -0.41246E-06   -0.22888E-06 11764   0.182E-02    0.149E-03
DAV:  18    -0.377041690958E+02   -0.14472E-06   -0.58556E-07 11020   0.141E-02    0.102E-03
DAV:  19    -0.377041690933E+02    0.25821E-08   -0.18530E-07 11236   0.800E-03    0.448E-04
DAV:  20    -0.377041690962E+02   -0.28831E-08   -0.63498E-08 11916   0.186E-03
   1 F= -.37704169E+02 E0= -.37693196E+02  d E =-.377042E+02
 curvature:   0.00 expect dE= 0.000E+00 dE for cont linesearch  0.000E+00
 trial: gam= 0.00000 g(F)=  0.168E-03 g(S)=  0.336E-04 ort = 0.000E+00 (trialstep = 0.100E+01)
 search vector abs. value=  0.201E-03
 bond charge predicted
       N       E                     dE             d eps       ncg     rms          rms(c)
DAV:   1    -0.377041860257E+02   -0.16932E-04   -0.39680E-02  9944   0.110E+00    0.887E-02
DAV:   2    -0.377042569868E+02   -0.70961E-04   -0.20873E-03 11816   0.357E-01    0.574E-02
DAV:   3    -0.377042191668E+02    0.37820E-04   -0.17318E-04 12120   0.124E-01    0.332E-02
DAV:   4    -0.377042032597E+02    0.15907E-04   -0.70253E-05 11096   0.716E-02    0.102E-02
DAV:   5    -0.377042036874E+02   -0.42769E-06   -0.12231E-05 11548   0.402E-02    0.486E-03
DAV:   6    -0.377042037314E+02   -0.43980E-07   -0.22853E-06 11888   0.227E-02    0.212E-03
DAV:   7    -0.377042037543E+02   -0.22954E-07   -0.39900E-07 12604   0.136E-02    0.675E-04
DAV:   8    -0.377042037665E+02   -0.12174E-07   -0.17169E-07 11428   0.482E-03    0.493E-04
DAV:   9    -0.377042037611E+02    0.54247E-08   -0.22334E-08  6928   0.297E-03
   2 F= -.37704204E+02 E0= -.37693205E+02  d E =-.346649E-04
 trial-energy change:   -0.000035  1 .order   -0.000036   -0.000201    0.000130
 step:   0.6031(harm=  0.6081)  dis= 0.00121  next Energy=   -37.704230 (dE=-0.605E-04)
 bond charge predicted
       N       E                     dE             d eps       ncg     rms          rms(c)
DAV:   1    -0.377042266584E+02   -0.22892E-04   -0.62493E-03  9912   0.439E-01    0.352E-02
DAV:   2    -0.377042384344E+02   -0.11776E-04   -0.32981E-04 11824   0.142E-01    0.228E-02
DAV:   3    -0.377042321254E+02    0.63090E-05   -0.27454E-05 12100   0.496E-02    0.132E-02
DAV:   4    -0.377042296480E+02    0.24773E-05   -0.11141E-05 11064   0.288E-02    0.399E-03
DAV:   5    -0.377042296253E+02    0.22761E-07   -0.19251E-06 11552   0.159E-02    0.191E-03
DAV:   6    -0.377042296145E+02    0.10771E-07   -0.36977E-07 11860   0.894E-03    0.838E-04
DAV:   7    -0.377042296084E+02    0.61423E-08   -0.59716E-08 10872   0.555E-03
   3 F= -.37704230E+02 E0= -.37693241E+02  d E =-.605122E-04
 curvature:  -0.30 expect dE=-0.557E-04 dE for cont linesearch -0.364E-08
 trial: gam= 0.90243 g(F)=  0.127E-03 g(S)=  0.566E-04 ort = 0.155E-05 (trialstep = 0.530E+00)
 search vector abs. value=  0.350E-03
 bond charge predicted
       N       E                     dE             d eps       ncg     rms          rms(c)
DAV:   1    -0.377044374322E+02   -0.20782E-03   -0.17294E-02 10912   0.980E-01    0.106E-01
DAV:   2    -0.377043409293E+02    0.96503E-04   -0.15287E-03 11424   0.525E-01    0.496E-02
DAV:   3    -0.377043158959E+02    0.25033E-04   -0.13681E-04 13984   0.139E-01    0.237E-02
DAV:   4    -0.377043050020E+02    0.10894E-04   -0.23294E-05 13332   0.718E-02    0.640E-03
DAV:   5    -0.377043050383E+02   -0.36267E-07   -0.90568E-06 10816   0.287E-02    0.244E-03
DAV:   6    -0.377043050992E+02   -0.60918E-07   -0.11588E-06 12188   0.144E-02    0.141E-03
DAV:   7    -0.377043050788E+02    0.20385E-07   -0.16628E-07 11752   0.994E-03    0.749E-04
DAV:   8    -0.377043050648E+02    0.13968E-07   -0.56548E-08 10488   0.440E-03    0.203E-04
DAV:   9    -0.377043050600E+02    0.48385E-08   -0.18814E-08  6404   0.151E-03
   4 F= -.37704305E+02 E0= -.37693321E+02  d E =-.754516E-04
 trial-energy change:   -0.000075  1 .order   -0.000075   -0.000098   -0.000053
 step:   1.1583(harm=  1.1583)  dis= 0.00186  next Energy=   -37.704337 (dE=-0.107E-03)
 bond charge predicted
       N       E                     dE             d eps       ncg     rms          rms(c)
DAV:   1    -0.377045246117E+02   -0.21955E-03   -0.24386E-02 10912   0.116E+00    0.126E-01
DAV:   2    -0.377043883860E+02    0.13623E-03   -0.21575E-03 11424   0.624E-01    0.589E-02
DAV:   3    -0.377043528676E+02    0.35518E-04   -0.19316E-04 13960   0.166E-01    0.281E-02
DAV:   4    -0.377043374160E+02    0.15452E-04   -0.33089E-05 13316   0.856E-02    0.760E-03
DAV:   5    -0.377043374419E+02   -0.25949E-07   -0.12822E-05 10812   0.342E-02    0.290E-03
DAV:   6    -0.377043375213E+02   -0.79351E-07   -0.16356E-06 12204   0.171E-02    0.168E-03
DAV:   7    -0.377043374959E+02    0.25351E-07   -0.23656E-07 11984   0.118E-02    0.886E-04
DAV:   8    -0.377043374804E+02    0.15566E-07   -0.81125E-08 11000   0.527E-03    0.243E-04
DAV:   9    -0.377043374750E+02    0.53901E-08   -0.27429E-08  7720   0.177E-03
   5 F= -.37704337E+02 E0= -.37693360E+02  d E =-.107867E-03
 curvature:  -1.10 expect dE=-0.148E-03 dE for cont linesearch -0.125E-08
 trial: gam= 0.73989 g(F)=  0.774E-04 g(S)=  0.571E-04 ort =-0.631E-06 (trialstep = 0.655E+00)
 search vector abs. value=  0.325E-03
 bond charge predicted
       N       E                     dE             d eps       ncg     rms          rms(c)
DAV:   1    -0.377044698152E+02   -0.13233E-03   -0.23856E-02 10008   0.890E-01    0.730E-02
DAV:   2    -0.377044490713E+02    0.20744E-04   -0.70913E-04 12336   0.290E-01    0.441E-02
DAV:   3    -0.377044154448E+02    0.33627E-04   -0.77931E-05 12428   0.144E-01    0.165E-02
DAV:   4    -0.377044116764E+02    0.37684E-05   -0.30518E-05 11848   0.779E-02    0.391E-03
DAV:   5    -0.377044122787E+02   -0.60226E-06   -0.79675E-06 11580   0.311E-02    0.242E-03
DAV:   6    -0.377044123004E+02   -0.21700E-07   -0.95063E-07 12020   0.189E-02    0.164E-03
DAV:   7    -0.377044123265E+02   -0.26152E-07   -0.26211E-07 12420   0.777E-03    0.626E-04
DAV:   8    -0.377044123442E+02   -0.17709E-07   -0.56408E-08  9812   0.351E-03    0.266E-04
DAV:   9    -0.377044123494E+02   -0.51846E-08   -0.16256E-08  6772   0.136E-03
   6 F= -.37704412E+02 E0= -.37693432E+02  d E =-.748744E-04
 trial-energy change:   -0.000075  1 .order   -0.000075   -0.000088   -0.000063
 step:   2.3132(harm=  2.3132)  dis= 0.00342  next Energy=   -37.704493 (dE=-0.155E-03)
 bond charge predicted
       N       E                     dE             d eps       ncg     rms          rms(c)
DAV:   1    -0.377048528992E+02   -0.44055E-03   -0.15269E-01 10008   0.225E+00    0.185E-01
DAV:   2    -0.377047207406E+02    0.13216E-03   -0.45473E-03 12304   0.733E-01    0.111E-01
DAV:   3    -0.377045074349E+02    0.21331E-03   -0.50165E-04 12416   0.365E-01    0.418E-02
DAV:   4    -0.377044836214E+02    0.23813E-04   -0.19468E-04 11756   0.197E-01    0.972E-03
DAV:   5    -0.377044873527E+02   -0.37313E-05   -0.51655E-05 11540   0.779E-02    0.612E-03
DAV:   6    -0.377044874826E+02   -0.12987E-06   -0.64341E-06 12060   0.493E-02    0.416E-03
DAV:   7    -0.377044875896E+02   -0.10709E-06   -0.17111E-06 13284   0.207E-02    0.159E-03
DAV:   8    -0.377044876562E+02   -0.66568E-07   -0.36647E-07 11004   0.888E-03    0.681E-04
DAV:   9    -0.377044876774E+02   -0.21153E-07   -0.11760E-07 12908   0.334E-03    0.419E-04
DAV:  10    -0.377044876854E+02   -0.80627E-08   -0.10578E-08  6492   0.160E-03
   7 F= -.37704488E+02 E0= -.37693502E+02  d E =-.150210E-03
 curvature:  -2.81 expect dE=-0.255E-03 dE for cont linesearch -0.102E-07
 trial: gam= 0.66709 g(F)=  0.869E-04 g(S)=  0.395E-05 ort =-0.109E-05 (trialstep = 0.987E+00)
 search vector abs. value=  0.234E-03
 bond charge predicted
       N       E                     dE             d eps       ncg     rms          rms(c)
DAV:   1    -0.377045820651E+02   -0.94388E-04   -0.41002E-02 10028   0.113E+00    0.726E-02
DAV:   2    -0.377045930389E+02   -0.10974E-04   -0.94875E-04 12408   0.277E-01    0.437E-02
DAV:   3    -0.377045584636E+02    0.34575E-04   -0.80348E-05 12764   0.129E-01    0.141E-02
DAV:   4    -0.377045560920E+02    0.23715E-05   -0.28028E-05 11156   0.744E-02    0.377E-03
DAV:   5    -0.377045567695E+02   -0.67745E-06   -0.84065E-06 11388   0.298E-02    0.259E-03
DAV:   6    -0.377045567362E+02    0.33328E-07   -0.79675E-07 12756   0.221E-02    0.157E-03
DAV:   7    -0.377045567341E+02    0.20600E-08   -0.31494E-07 12968   0.636E-03    0.537E-04
DAV:   8    -0.377045567352E+02   -0.10673E-08   -0.55799E-08 10460   0.456E-03
   8 F= -.37704557E+02 E0= -.37693569E+02  d E =-.690497E-04
 trial-energy change:   -0.000069  1 .order   -0.000069   -0.000089   -0.000050
 step:   2.4818(harm=  2.2519)  dis= 0.00353  next Energy=   -37.704593 (dE=-0.106E-03)
 bond charge predicted
       N       E                     dE             d eps       ncg     rms          rms(c)
DAV:   1    -0.377046472270E+02   -0.90493E-04   -0.94080E-02 10024   0.171E+00    0.110E-01
DAV:   2    -0.377046724450E+02   -0.25218E-04   -0.21745E-03 12400   0.421E-01    0.661E-02
DAV:   3    -0.377045930308E+02    0.79414E-04   -0.18415E-04 12796   0.196E-01    0.212E-02
DAV:   4    -0.377045878424E+02    0.51884E-05   -0.64299E-05 11148   0.113E-01    0.570E-03
DAV:   5    -0.377045893897E+02   -0.15472E-05   -0.19265E-05 11400   0.449E-02    0.392E-03
DAV:   6    -0.377045893198E+02    0.69841E-07   -0.17951E-06 12780   0.332E-02    0.237E-03
DAV:   7    -0.377045893281E+02   -0.82882E-08   -0.71598E-07 12960   0.967E-03    0.810E-04
DAV:   8    -0.377045893316E+02   -0.34524E-08   -0.13119E-07 11680   0.684E-03    0.506E-04
DAV:   9    -0.377045893320E+02   -0.49158E-09   -0.18310E-08  6680   0.249E-03
   9 F= -.37704589E+02 E0= -.37693599E+02  d E =-.101647E-03
 curvature:  -2.83 expect dE=-0.184E-03 dE for cont linesearch -0.999E-06
 trial: gam= 0.81141 g(F)=  0.560E-04 g(S)=  0.925E-05 ort =-0.909E-05 (trialstep = 0.129E+01)
 search vector abs. value=  0.205E-03
 bond charge predicted
       N       E                     dE             d eps       ncg     rms          rms(c)
DAV:   1    -0.377045740265E+02    0.15305E-04   -0.65195E-02  9936   0.149E+00    0.857E-02
DAV:   2    -0.377046652725E+02   -0.91246E-04   -0.21924E-03 11452   0.447E-01    0.452E-02
DAV:   3    -0.377046474082E+02    0.17864E-04   -0.17159E-04 12676   0.151E-01    0.247E-02
DAV:   4    -0.377046370855E+02    0.10323E-04   -0.35723E-05 12316   0.911E-02    0.659E-03
DAV:   5    -0.377046372306E+02   -0.14510E-06   -0.11112E-05 11088   0.390E-02    0.244E-03
DAV:   6    -0.377046373805E+02   -0.14990E-06   -0.25787E-06 12236   0.193E-02    0.173E-03
DAV:   7    -0.377046373970E+02   -0.16507E-07   -0.38412E-07 12576   0.136E-02    0.890E-04
DAV:   8    -0.377046374239E+02   -0.26867E-07   -0.16667E-07 12208   0.373E-03    0.291E-04
DAV:   9    -0.377046374269E+02   -0.30013E-08   -0.15686E-08  6360   0.163E-03
  10 F= -.37704637E+02 E0= -.37693624E+02  d E =-.480948E-04
 trial-energy change:   -0.000048  1 .order   -0.000049   -0.000074   -0.000023
 step:   1.8971(harm=  1.8510)  dis= 0.00229  next Energy=   -37.704643 (dE=-0.534E-04)
 bond charge predicted
       N       E                     dE             d eps       ncg     rms          rms(c)
DAV:   1    -0.377046295717E+02    0.78521E-05   -0.14725E-02  9936   0.706E-01    0.407E-02
DAV:   2    -0.377046501941E+02   -0.20622E-04   -0.49461E-04 11460   0.212E-01    0.215E-02
DAV:   3    -0.377046460172E+02    0.41769E-05   -0.38500E-05 12676   0.702E-02    0.117E-02
DAV:   4    -0.377046435943E+02    0.24229E-05   -0.79662E-06 12356   0.427E-02    0.313E-03
DAV:   5    -0.377046436042E+02   -0.98908E-08   -0.24549E-06 11088   0.183E-02    0.116E-03
DAV:   6    -0.377046436309E+02   -0.26661E-07   -0.56648E-07 12204   0.887E-03    0.822E-04
DAV:   7    -0.377046436368E+02   -0.59163E-08   -0.79453E-08  8528   0.632E-03
  11 F= -.37704644E+02 E0= -.37693619E+02  d E =-.543047E-04
 curvature:  -3.25 expect dE=-0.499E-03 dE for cont linesearch -0.193E-06
 trial: gam= 2.20881 g(F)=  0.127E-03 g(S)=  0.265E-04 ort =-0.349E-05 (trialstep = 0.254E+00)
 search vector abs. value=  0.114E-02
 bond charge predicted
       N       E                     dE             d eps       ncg     rms          rms(c)
DAV:   1    -0.377046554632E+02   -0.11832E-04   -0.14282E-02  9924   0.678E-01    0.355E-02
DAV:   2    -0.377046799864E+02   -0.24523E-04   -0.42794E-04 12328   0.174E-01    0.214E-02
DAV:   3    -0.377046741721E+02    0.58143E-05   -0.25743E-05 13140   0.656E-02    0.112E-02
DAV:   4    -0.377046723662E+02    0.18059E-05   -0.81087E-06 12228   0.433E-02    0.295E-03
DAV:   5    -0.377046724056E+02   -0.39393E-07   -0.21804E-06 10772   0.216E-02    0.156E-03
DAV:   6    -0.377046724130E+02   -0.73942E-08   -0.44457E-07 12120   0.950E-03    0.900E-04
DAV:   7    -0.377046723974E+02    0.15587E-07   -0.81913E-08 11828   0.733E-03    0.434E-04
DAV:   8    -0.377046723886E+02    0.87707E-08   -0.30511E-08  7156   0.203E-03
  12 F= -.37704672E+02 E0= -.37693644E+02  d E =-.287519E-04
 trial-energy change:   -0.000029  1 .order   -0.000028   -0.000037   -0.000019
 step:   0.4538(harm=  0.5304)  dis= 0.00116  next Energy=   -37.704680 (dE=-0.367E-04)
 bond charge predicted
       N       E                     dE             d eps       ncg     rms          rms(c)
DAV:   1    -0.377046722594E+02    0.13801E-06   -0.89045E-03  9924   0.536E-01    0.280E-02
DAV:   2    -0.377046875235E+02   -0.15264E-04   -0.26633E-04 12360   0.138E-01    0.169E-02
DAV:   3    -0.377046839204E+02    0.36032E-05   -0.16020E-05 13152   0.516E-02    0.887E-03
DAV:   4    -0.377046828078E+02    0.11125E-05   -0.49921E-06 12224   0.337E-02    0.233E-03
DAV:   5    -0.377046828251E+02   -0.17310E-07   -0.13600E-06 10760   0.168E-02    0.124E-03
DAV:   6    -0.377046828269E+02   -0.17603E-08   -0.27123E-07 12080   0.754E-03    0.709E-04
DAV:   7    -0.377046828149E+02    0.11977E-07   -0.49795E-08 10504   0.571E-03    0.344E-04
DAV:   8    -0.377046828073E+02    0.75784E-08   -0.18719E-08  6004   0.162E-03
  13 F= -.37704683E+02 E0= -.37693652E+02  d E =-.391705E-04
 curvature:  -1.91 expect dE=-0.553E-04 dE for cont linesearch -0.626E-06
 ZBRENT: extrapolating
 opt :   0.5219  next Energy=   -37.704683 (dE=-0.398E-04)
 bond charge predicted
       N       E                     dE             d eps       ncg     rms          rms(c)
DAV:   1    -0.377046822954E+02    0.51953E-06   -0.10294E-03  9924   0.182E-01    0.953E-03
DAV:   2    -0.377046840761E+02   -0.17807E-05   -0.30734E-05 12368   0.468E-02    0.573E-03
DAV:   3    -0.377046836824E+02    0.39367E-06   -0.18440E-06 13208   0.173E-02    0.301E-03
DAV:   4    -0.377046835676E+02    0.11480E-06   -0.57003E-07 12224   0.112E-02    0.794E-04
DAV:   5    -0.377046835610E+02    0.66384E-08   -0.15684E-07 10760   0.566E-03    0.423E-04
DAV:   6    -0.377046835589E+02    0.20264E-08   -0.29150E-08  8096   0.257E-03
  14 F= -.37704684E+02 E0= -.37693652E+02  d E =-.399222E-04
 curvature:  -2.00 expect dE=-0.714E-04 dE for cont linesearch -0.556E-13
 trial: gam= 0.24850 g(F)=  0.330E-04 g(S)=  0.260E-05 ort = 0.562E-08 (trialstep = 0.307E+00)
 search vector abs. value=  0.106E-03
 bond charge predicted
       N       E                     dE             d eps       ncg     rms          rms(c)
DAV:   1    -0.377046880109E+02   -0.44500E-05   -0.20581E-03  9944   0.255E-01    0.116E-02
DAV:   2    -0.377046912555E+02   -0.32446E-05   -0.49938E-05 11916   0.530E-02    0.682E-03
DAV:   3    -0.377046906646E+02    0.59094E-06   -0.21233E-06 13292   0.154E-02    0.312E-03
DAV:   4    -0.377046905221E+02    0.14251E-06   -0.58153E-07 11904   0.150E-02    0.699E-04
DAV:   5    -0.377046905349E+02   -0.12757E-07   -0.21024E-07 10940   0.736E-03    0.441E-04
DAV:   6    -0.377046905388E+02   -0.39317E-08   -0.44460E-08  9340   0.250E-03
  15 F= -.37704691E+02 E0= -.37693656E+02  d E =-.697984E-05
 ZBRENT: can't locate minimum, use default step
 trial-energy change:   -0.000007  1 .order   -0.000010   -0.000011   -0.000009
 step:   1.2289(harm=  1.8377)  dis= 0.00109  next Energy=   -37.704716 (dE=-0.327E-04)
 bond charge predicted
       N       E                     dE             d eps       ncg     rms          rms(c)
DAV:   1    -0.377046863662E+02    0.41687E-05   -0.18521E-02  9944   0.765E-01    0.348E-02
DAV:   2    -0.377047154555E+02   -0.29089E-04   -0.44942E-04 11920   0.158E-01    0.204E-02
DAV:   3    -0.377047099734E+02    0.54821E-05   -0.18761E-05 13320   0.417E-02    0.926E-03
DAV:   4    -0.377047086181E+02    0.13553E-05   -0.49714E-06 11728   0.407E-02    0.201E-03
DAV:   5    -0.377047087357E+02   -0.11765E-06   -0.17798E-06 10880   0.211E-02    0.133E-03
DAV:   6    -0.377047087648E+02   -0.29024E-07   -0.37772E-07 12248   0.772E-03    0.800E-04
DAV:   7    -0.377047087682E+02   -0.34911E-08   -0.53204E-08  9996   0.519E-03
  16 F= -.37704709E+02 E0= -.37693666E+02  d E =-.252093E-04
 curvature:  -2.30 expect dE=-0.365E-04 dE for cont linesearch -0.330E-05
 ZBRENT: increasing intervall
 opt :   3.0723  next Energy=   -37.704700 (dE=-0.160E-04)
 bond charge predicted
       N       E                     dE             d eps       ncg     rms          rms(c)
DAV:   1    -0.377046116162E+02    0.97149E-04   -0.74073E-02  9944   0.153E+00    0.696E-02
DAV:   2    -0.377047278497E+02   -0.11623E-03   -0.17975E-03 11928   0.315E-01    0.407E-02
DAV:   3    -0.377047057323E+02    0.22117E-04   -0.74424E-05 13304   0.791E-02    0.185E-02
DAV:   4    -0.377047002389E+02    0.54933E-05   -0.19309E-05 11548   0.762E-02    0.394E-03
DAV:   5    -0.377047007123E+02   -0.47336E-06   -0.69365E-06 10800   0.410E-02    0.267E-03
DAV:   6    -0.377047008096E+02   -0.97318E-07   -0.14447E-06 12300   0.159E-02    0.161E-03
DAV:   7    -0.377047008190E+02   -0.93610E-08   -0.22000E-07 11832   0.102E-02    0.713E-04
DAV:   8    -0.377047008247E+02   -0.57198E-08   -0.89066E-08 12508   0.301E-03
  17 F= -.37704701E+02 E0= -.37693640E+02  d E =-.172657E-04
 curvature:   6.41 expect dE= 0.583E-03 dE for cont linesearch  0.282E-04
 ZBRENT: bracketing found
 ZBRENT: interpolating
 opt :   1.8997  next Energy=   -37.704713 (dE=-0.293E-04)
 bond charge predicted
       N       E                     dE             d eps       ncg     rms          rms(c)
DAV:   1    -0.377046776577E+02    0.23161E-04   -0.29973E-02  9944   0.973E-01    0.443E-02
DAV:   2    -0.377047244096E+02   -0.46752E-04   -0.72676E-04 11904   0.200E-01    0.259E-02
DAV:   3    -0.377047153273E+02    0.90823E-05   -0.30152E-05 13316   0.511E-02    0.118E-02
DAV:   4    -0.377047129846E+02    0.23427E-05   -0.78619E-06 11408   0.484E-02    0.251E-03
DAV:   5    -0.377047131835E+02   -0.19892E-06   -0.28069E-06 10760   0.260E-02    0.170E-03
DAV:   6    -0.377047132101E+02   -0.26610E-07   -0.57274E-07 12348   0.102E-02    0.102E-03
DAV:   7    -0.377047132078E+02    0.22969E-08   -0.86895E-08 10664   0.649E-03
  18 F= -.37704713E+02 E0= -.37693664E+02  d E =-.296488E-04
 curvature:  -0.94 expect dE=-0.268E-04 dE for cont linesearch -0.725E-08
 trial: gam= 0.82729 g(F)=  0.202E-04 g(S)=  0.828E-05 ort = 0.903E-06 (trialstep = 0.626E+00)
 search vector abs. value=  0.102E-03
 bond charge predicted
       N       E                     dE             d eps       ncg     rms          rms(c)
DAV:   1    -0.377047324148E+02   -0.19205E-04   -0.75383E-03  9896   0.496E-01    0.372E-02
DAV:   2    -0.377047350203E+02   -0.26054E-05   -0.23694E-04 11252   0.142E-01    0.222E-02
DAV:   3    -0.377047280779E+02    0.69423E-05   -0.21877E-05 13912   0.485E-02    0.106E-02
DAV:   4    -0.377047262679E+02    0.18100E-05   -0.72030E-06 10684   0.234E-02    0.208E-03
DAV:   5    -0.377047263409E+02   -0.73012E-07   -0.17652E-06 11180   0.156E-02    0.127E-03
DAV:   6    -0.377047263403E+02    0.58344E-09   -0.24355E-07 11796   0.880E-03    0.848E-04
DAV:   7    -0.377047263223E+02    0.18010E-07   -0.45843E-08  9896   0.532E-03    0.311E-04
DAV:   8    -0.377047263156E+02    0.66811E-08   -0.16453E-08  6020   0.145E-03
  19 F= -.37704726E+02 E0= -.37693678E+02  d E =-.131078E-04
 trial-energy change:   -0.000013  1 .order   -0.000013   -0.000018   -0.000008
 step:   1.0392(harm=  1.0847)  dis= 0.00067  next Energy=   -37.704729 (dE=-0.157E-04)
 bond charge predicted
       N       E                     dE             d eps       ncg     rms          rms(c)
DAV:   1    -0.377047319434E+02   -0.56211E-05   -0.32925E-03  9896   0.328E-01    0.246E-02
DAV:   2    -0.377047331086E+02   -0.11652E-05   -0.10346E-04 11224   0.937E-02    0.147E-02
DAV:   3    -0.377047301207E+02    0.29879E-05   -0.95807E-06 13920   0.321E-02    0.700E-03
DAV:   4    -0.377047293597E+02    0.76097E-06   -0.31460E-06 10724   0.153E-02    0.137E-03
DAV:   5    -0.377047293828E+02   -0.23065E-07   -0.77816E-07 11212   0.103E-02    0.846E-04
DAV:   6    -0.377047293805E+02    0.22692E-08   -0.10426E-07 11156   0.580E-03    0.563E-04
DAV:   7    -0.377047293684E+02    0.12108E-07   -0.17260E-08  6152   0.348E-03    0.210E-04
DAV:   8    -0.377047293635E+02    0.49322E-08   -0.10664E-08  5796   0.106E-03
  20 F= -.37704729E+02 E0= -.37693682E+02  d E =-.161557E-04
 curvature:  -1.88 expect dE=-0.964E-04 dE for cont linesearch -0.428E-07
 trial: gam= 1.75907 g(F)=  0.365E-04 g(S)=  0.146E-04 ort = 0.152E-05 (trialstep = 0.194E+00)
 search vector abs. value=  0.373E-03
 bond charge predicted
       N       E                     dE             d eps       ncg     rms          rms(c)
DAV:   1    -0.377047450541E+02   -0.15686E-04   -0.25491E-03  9912   0.296E-01    0.257E-02
DAV:   2    -0.377047425167E+02    0.25374E-05   -0.87373E-05 11344   0.108E-01    0.140E-02
DAV:   3    -0.377047396471E+02    0.28696E-05   -0.88190E-06 12580   0.390E-02    0.632E-03
DAV:   4    -0.377047389530E+02    0.69408E-06   -0.22949E-06 12060   0.236E-02    0.114E-03
DAV:   5    -0.377047389993E+02   -0.46279E-07   -0.83165E-07 10692   0.957E-03    0.721E-04
DAV:   6    -0.377047390005E+02   -0.12042E-08   -0.90241E-08 10876   0.463E-03
  21 F= -.37704739E+02 E0= -.37693688E+02  d E =-.963703E-05
 trial-energy change:   -0.000010  1 .order   -0.000009   -0.000010   -0.000008
 step:   0.5433(harm=  1.0297)  dis= 0.00059  next Energy=   -37.704748 (dE=-0.182E-04)
 bond charge predicted
       N       E                     dE             d eps       ncg     rms          rms(c)
DAV:   1    -0.377047715673E+02   -0.32568E-04   -0.82318E-03  9912   0.532E-01    0.463E-02
DAV:   2    -0.377047632078E+02    0.83594E-05   -0.28279E-04 11348   0.194E-01    0.251E-02
DAV:   3    -0.377047541933E+02    0.90146E-05   -0.28644E-05 12584   0.715E-02    0.114E-02
DAV:   4    -0.377047519859E+02    0.22073E-05   -0.74796E-06 12036   0.434E-02    0.204E-03
DAV:   5    -0.377047521600E+02   -0.17411E-06   -0.27035E-06 10696   0.176E-02    0.130E-03
DAV:   6    -0.377047521683E+02   -0.82673E-08   -0.31287E-07 12732   0.876E-03    0.812E-04
DAV:   7    -0.377047521728E+02   -0.45302E-08   -0.55994E-08 10992   0.550E-03
  22 F= -.37704752E+02 E0= -.37693695E+02  d E =-.228094E-04
 curvature:  -2.36 expect dE=-0.402E-04 dE for cont linesearch -0.544E-05
 ZBRENT: increasing intervall
 opt :   1.2414  next Energy=   -37.704763 (dE=-0.333E-04)
 bond charge predicted
       N       E                     dE             d eps       ncg     rms          rms(c)
DAV:   1    -0.377048398869E+02   -0.87719E-04   -0.32923E-02  9912   0.106E+00    0.925E-02
DAV:   2    -0.377048058997E+02    0.33987E-04   -0.11295E-03 11352   0.387E-01    0.502E-02
DAV:   3    -0.377047705241E+02    0.35376E-04   -0.11428E-04 12608   0.140E-01    0.227E-02
DAV:   4    -0.377047617365E+02    0.87876E-05   -0.29506E-05 12028   0.849E-02    0.409E-03
DAV:   5    -0.377047624673E+02   -0.73081E-06   -0.10701E-05 10684   0.343E-02    0.259E-03
DAV:   6    -0.377047625063E+02   -0.38945E-07   -0.11740E-06 12772   0.167E-02    0.160E-03
DAV:   7    -0.377047625171E+02   -0.10845E-07   -0.22320E-07 13404   0.108E-02    0.671E-04
DAV:   8    -0.377047625304E+02   -0.13341E-07   -0.75090E-08 10868   0.396E-03    0.218E-04
DAV:   9    -0.377047625304E+02    0.32742E-10   -0.15771E-08  6312   0.113E-03
  23 F= -.37704763E+02 E0= -.37693693E+02  d E =-.331669E-04
 curvature:  -4.53 expect dE=-0.123E-03 dE for cont linesearch -0.102E-07
 trial: gam= 0.69934 g(F)=  0.214E-04 g(S)=  0.572E-05 ort =-0.917E-06 (trialstep = 0.404E+00)
 search vector abs. value=  0.208E-03
 bond charge predicted
       N       E                     dE             d eps       ncg     rms          rms(c)
DAV:   1    -0.377047848903E+02   -0.22360E-04   -0.59421E-03  9992   0.470E-01    0.481E-02
DAV:   2    -0.377047681302E+02    0.16760E-04   -0.26827E-04 11860   0.203E-01    0.255E-02
DAV:   3    -0.377047589036E+02    0.92266E-05   -0.27535E-05 12504   0.681E-02    0.118E-02
DAV:   4    -0.377047563042E+02    0.25994E-05   -0.81589E-06 11848   0.384E-02    0.249E-03
DAV:   5    -0.377047564017E+02   -0.97560E-07   -0.26412E-06 10700   0.161E-02    0.123E-03
DAV:   6    -0.377047564030E+02   -0.12560E-08   -0.24040E-07 12684   0.872E-03    0.763E-04
DAV:   7    -0.377047564027E+02    0.33469E-09   -0.46968E-08 10228   0.519E-03
  24 F= -.37704756E+02 E0= -.37693679E+02  d E =0.612774E-05
 trial-energy change:    0.000006  1 .order   -0.000008   -0.000011   -0.000006
 step:   0.9682(harm=  0.9682)  dis= 0.00074  next Energy=   -37.704775 (dE=-0.128E-04)
 bond charge predicted
       N       E                     dE             d eps       ncg     rms          rms(c)
DAV:   1    -0.377048178234E+02   -0.61420E-04   -0.11624E-02  9988   0.658E-01    0.672E-02
DAV:   2    -0.377047847873E+02    0.33036E-04   -0.52478E-04 11852   0.284E-01    0.356E-02
DAV:   3    -0.377047669101E+02    0.17877E-04   -0.53883E-05 12464   0.958E-02    0.165E-02
DAV:   4    -0.377047618652E+02    0.50448E-05   -0.16115E-05 11836   0.541E-02    0.348E-03
DAV:   5    -0.377047620961E+02   -0.23085E-06   -0.52033E-06 10724   0.226E-02    0.172E-03
DAV:   6    -0.377047621015E+02   -0.53819E-08   -0.47578E-07 12752   0.123E-02    0.106E-03
DAV:   7    -0.377047621019E+02   -0.41655E-09   -0.99110E-08 11848   0.730E-03
  25 F= -.37704762E+02 E0= -.37693675E+02  d E =0.428518E-06
 curvature:  -3.80 expect dE=-0.726E-04 dE for cont linesearch -0.107E-07
 trial: gam= 0.59079 g(F)=  0.137E-04 g(S)=  0.537E-05 ort = 0.767E-06 (trialstep = 0.517E+00)
 search vector abs. value=  0.927E-04
 bond charge predicted
       N       E                     dE             d eps       ncg     rms          rms(c)
DAV:   1    -0.377048067035E+02   -0.44602E-04   -0.42948E-03 10500   0.492E-01    0.551E-02
DAV:   2    -0.377047790426E+02    0.27661E-04   -0.39634E-04 11484   0.264E-01    0.245E-02
DAV:   3    -0.377047721392E+02    0.69033E-05   -0.33922E-05 13860   0.690E-02    0.118E-02
DAV:   4    -0.377047690900E+02    0.30492E-05   -0.53720E-06 13816   0.350E-02    0.367E-03
DAV:   5    -0.377047688701E+02    0.21988E-06   -0.21057E-06 11068   0.136E-02    0.110E-03
DAV:   6    -0.377047688645E+02    0.56725E-08   -0.36194E-07 12068   0.696E-03    0.777E-04
DAV:   7    -0.377047688697E+02   -0.52569E-08   -0.28846E-08  8536   0.462E-03
  26 F= -.37704769E+02 E0= -.37693666E+02  d E =-.676785E-05
 trial-energy change:   -0.000007  1 .order   -0.000006   -0.000010   -0.000002
 step:   0.6161(harm=  0.6687)  dis= 0.00043  next Energy=   -37.704769 (dE=-0.699E-05)
 bond charge predicted
       N       E                     dE             d eps       ncg     rms          rms(c)
DAV:   1    -0.377047707801E+02   -0.19156E-05   -0.15959E-04 10500   0.945E-02    0.106E-02
DAV:   2    -0.377047697948E+02    0.98525E-06   -0.14596E-05 11484   0.506E-02    0.470E-03
DAV:   3    -0.377047694755E+02    0.31928E-06   -0.12566E-06 13920   0.132E-02    0.227E-03
DAV:   4    -0.377047693409E+02    0.13468E-06   -0.19474E-07 13732   0.652E-03    0.709E-04
DAV:   5    -0.377047693182E+02    0.22647E-07   -0.79129E-08 10700   0.243E-03    0.214E-04
DAV:   6    -0.377047693148E+02    0.34411E-08   -0.10567E-08  5948   0.120E-03
  27 F= -.37704769E+02 E0= -.37693664E+02  d E =-.721289E-05
 curvature:  -1.40 expect dE=-0.985E-05 dE for cont linesearch -0.101E-06
 ZBRENT: increasing intervall
 opt :   0.8150  next Energy=   -37.704769 (dE=-0.736E-05)
 bond charge predicted
       N       E                     dE             d eps       ncg     rms          rms(c)
DAV:   1    -0.377047750086E+02   -0.56904E-05   -0.63634E-04 10508   0.189E-01    0.212E-02
DAV:   2    -0.377047710072E+02    0.40014E-05   -0.58623E-05 11484   0.102E-01    0.942E-03
DAV:   3    -0.377047698827E+02    0.11245E-05   -0.50071E-06 13796   0.266E-02    0.456E-03
DAV:   4    -0.377047693925E+02    0.49021E-06   -0.79736E-07 13828   0.135E-02    0.140E-03
DAV:   5    -0.377047693377E+02    0.54754E-07   -0.31085E-07 11064   0.527E-03    0.420E-04
DAV:   6    -0.377047693323E+02    0.54351E-08   -0.53228E-08 10456   0.271E-03
  28 F= -.37704769E+02 E0= -.37693658E+02  d E =-.723039E-05
 curvature:  -2.02 expect dE=-0.274E-04 dE for cont linesearch -0.259E-06
 ZBRENT: bracketing found
 ZBRENT: interpolating
 opt :   0.7014  next Energy=   -37.704769 (dE=-0.732E-05)
 bond charge predicted
       N       E                     dE             d eps       ncg     rms          rms(c)
DAV:   1    -0.377047711895E+02   -0.18518E-05   -0.20757E-04 10528   0.108E-01    0.121E-02
DAV:   2    -0.377047697735E+02    0.14160E-05   -0.19242E-05 11492   0.580E-02    0.537E-03
DAV:   3    -0.377047695527E+02    0.22088E-06   -0.16350E-06 13848   0.150E-02    0.260E-03
DAV:   4    -0.377047694487E+02    0.10397E-06   -0.25849E-07 13660   0.739E-03    0.801E-04
DAV:   5    -0.377047694654E+02   -0.16744E-07   -0.10340E-07 10744   0.268E-03    0.243E-04
DAV:   6    -0.377047694697E+02   -0.42469E-08   -0.12432E-08  5864   0.105E-03
  29 F= -.37704769E+02 E0= -.37693661E+02  d E =-.736779E-05
 curvature:  -0.86 expect dE=-0.793E-05 dE for cont linesearch -0.174E-08
 trial: gam= 0.54845 g(F)=  0.832E-05 g(S)=  0.877E-06 ort = 0.433E-06 (trialstep = 0.554E+00)
 search vector abs. value=  0.376E-04
 bond charge predicted
       N       E                     dE             d eps       ncg     rms          rms(c)
DAV:   1    -0.377047801389E+02   -0.10673E-04   -0.21220E-03 10100   0.283E-01    0.259E-02
DAV:   2    -0.377047761854E+02    0.39535E-05   -0.97226E-05 12096   0.121E-01    0.134E-02
DAV:   3    -0.377047739047E+02    0.22807E-05   -0.10081E-05 12444   0.429E-02    0.669E-03
DAV:   4    -0.377047730813E+02    0.82334E-06   -0.26739E-06 12204   0.294E-02    0.182E-03
DAV:   5    -0.377047730628E+02    0.18510E-07   -0.79947E-07 11212   0.140E-02    0.746E-04
DAV:   6    -0.377047730628E+02   -0.31832E-10   -0.19027E-07 11020   0.613E-03    0.506E-04
DAV:   7    -0.377047730614E+02    0.13970E-08   -0.22450E-08  7368   0.370E-03
  30 F= -.37704773E+02 E0= -.37693658E+02  d E =-.359177E-05
 trial-energy change:   -0.000004  1 .order   -0.000003   -0.000005   -0.000001
 step:   0.6333(harm=  0.6930)  dis= 0.00030  next Energy=   -37.704773 (dE=-0.367E-05)
 bond charge predicted
       N       E                     dE             d eps       ncg     rms          rms(c)
DAV:   1    -0.377047733653E+02   -0.30246E-06   -0.44289E-05 10140   0.407E-02    0.373E-03
DAV:   2    -0.377047733147E+02    0.50554E-07   -0.19900E-06 12120   0.171E-02    0.192E-03
DAV:   3    -0.377047732471E+02    0.67623E-07   -0.20876E-07 12600   0.603E-03    0.950E-04
DAV:   4    -0.377047732305E+02    0.16590E-07   -0.52612E-08 10588   0.411E-03    0.270E-04
DAV:   5    -0.377047732254E+02    0.51596E-08   -0.14810E-08  5912   0.195E-03
  31 F= -.37704773E+02 E0= -.37693658E+02  d E =-.375570E-05
 curvature:  -1.13 expect dE=-0.319E-05 dE for cont linesearch -0.255E-07
 trial: gam= 0.17009 g(F)=  0.228E-05 g(S)=  0.553E-06 ort = 0.922E-06 (trialstep = 0.569E+00)
 search vector abs. value=  0.423E-05
 bond charge predicted
       N       E                     dE             d eps       ncg     rms          rms(c)
DAV:   1    -0.377047745914E+02   -0.13609E-05   -0.28491E-04 10100   0.955E-02    0.513E-03
DAV:   2    -0.377047748107E+02   -0.21930E-06   -0.64246E-06 11800   0.258E-02    0.300E-03
DAV:   3    -0.377047747104E+02    0.10030E-06   -0.64517E-07 12116   0.150E-02    0.144E-03
DAV:   4    -0.377047746935E+02    0.16894E-07   -0.16117E-07 11972   0.100E-02    0.334E-04
DAV:   5    -0.377047747004E+02   -0.68762E-08   -0.72110E-08 10488   0.286E-03
  32 F= -.37704775E+02 E0= -.37693658E+02  d E =-.147501E-05
 trial-energy change:   -0.000001  1 .order   -0.000001   -0.000002   -0.000001
 step:   1.9956(harm=  1.9956)  dis= 0.00038  next Energy=   -37.704776 (dE=-0.298E-05)
 bond charge predicted
       N       E                     dE             d eps       ncg     rms          rms(c)
DAV:   1    -0.377047758112E+02   -0.11177E-05   -0.17866E-03 10100   0.239E-01    0.129E-02
DAV:   2    -0.377047771905E+02   -0.13793E-05   -0.40421E-05 11768   0.656E-02    0.754E-03
DAV:   3    -0.377047765039E+02    0.68655E-06   -0.41741E-06 12120   0.385E-02    0.366E-03
DAV:   4    -0.377047763578E+02    0.14615E-06   -0.10333E-06 12116   0.256E-02    0.836E-04
DAV:   5    -0.377047763978E+02   -0.40020E-07   -0.46665E-07 11620   0.712E-03    0.535E-04
DAV:   6    -0.377047763995E+02   -0.17289E-08   -0.42779E-08  8688   0.359E-03
  33 F= -.37704776E+02 E0= -.37693658E+02  d E =-.317415E-05
 curvature:  -1.41 expect dE=-0.474E-05 dE for cont linesearch -0.543E-08
 trial: gam= 1.22632 g(F)=  0.271E-05 g(S)=  0.645E-06 ort = 0.128E-06 (trialstep = 0.361E+00)
 search vector abs. value=  0.100E-04
 bond charge predicted
       N       E                     dE             d eps       ncg     rms          rms(c)
DAV:   1    -0.377047767765E+02   -0.37865E-06   -0.28449E-04  9996   0.975E-02    0.509E-03
DAV:   2    -0.377047773741E+02   -0.59769E-06   -0.10219E-05 11752   0.286E-02    0.273E-03
DAV:   3    -0.377047773444E+02    0.29728E-07   -0.78940E-07 12496   0.107E-02    0.178E-03
DAV:   4    -0.377047773308E+02    0.13579E-07   -0.18376E-07 12320   0.558E-03    0.541E-04
DAV:   5    -0.377047773365E+02   -0.56907E-08   -0.46634E-08 10240   0.390E-03
  34 F= -.37704777E+02 E0= -.37693660E+02  d E =-.936996E-06
 trial-energy change:   -0.000001  1 .order   -0.000001   -0.000001   -0.000000
 step:   0.4668(harm=  0.5513)  dis= 0.00014  next Energy=   -37.704777 (dE=-0.100E-05)
 bond charge predicted
       N       E                     dE             d eps       ncg     rms          rms(c)
DAV:   1    -0.377047773881E+02   -0.57240E-07   -0.24723E-05 10028   0.287E-02    0.152E-03
DAV:   2    -0.377047774479E+02   -0.59786E-07   -0.88905E-07 11768   0.815E-03    0.809E-04
DAV:   3    -0.377047774511E+02   -0.32132E-08   -0.65237E-08 10856   0.268E-03
  35 F= -.37704777E+02 E0= -.37693661E+02  d E =-.105154E-05
 curvature:  -0.63 expect dE=-0.963E-06 dE for cont linesearch -0.358E-07
 trial: gam= 0.29929 g(F)=  0.787E-06 g(S)=  0.734E-06 ort = 0.753E-06 (trialstep = 0.382E+00)
 search vector abs. value=  0.287E-05
 bond charge predicted
       N       E                     dE             d eps       ncg     rms          rms(c)
DAV:   1    -0.377047783798E+02   -0.93197E-06   -0.79284E-05 10288   0.614E-02    0.572E-03
DAV:   2    -0.377047782213E+02    0.15848E-06   -0.51664E-06 11464   0.307E-02    0.287E-03
DAV:   3    -0.377047780970E+02    0.12434E-06   -0.49604E-07 12296   0.979E-03    0.136E-03
DAV:   4    -0.377047780463E+02    0.50700E-07   -0.10131E-07 12100   0.623E-03    0.323E-04
DAV:   5    -0.377047780405E+02    0.57648E-08   -0.40097E-08  8688   0.237E-03
  36 F= -.37704778E+02 E0= -.37693661E+02  d E =-.589469E-06
 trial-energy change:   -0.000001  1 .order   -0.000001   -0.000001   -0.000000
 step:   0.6360(harm=  1.0754)  dis= 0.00010  next Energy=   -37.704778 (dE=-0.745E-06)
 bond charge predicted
       N       E                     dE             d eps       ncg     rms          rms(c)
DAV:   1    -0.377047784975E+02   -0.45116E-06   -0.35345E-05 10292   0.407E-02    0.382E-03
DAV:   2    -0.377047784401E+02    0.57324E-07   -0.23092E-06 11464   0.199E-02    0.191E-03
DAV:   3    -0.377047783750E+02    0.65175E-07   -0.20590E-07 12772   0.594E-03    0.906E-04
DAV:   4    -0.377047783488E+02    0.26139E-07   -0.37812E-08  9932   0.371E-03    0.212E-04
DAV:   5    -0.377047783448E+02    0.40609E-08   -0.15958E-08  5928   0.139E-03
  37 F= -.37704778E+02 E0= -.37693661E+02  d E =-.893691E-06
 curvature:  -0.53 expect dE=-0.330E-06 dE for cont linesearch -0.165E-06
 ZBRENT: increasing intervall
 opt :   1.1444  next Energy=   -37.704779 (dE=-0.128E-05)
 bond charge predicted
       N       E                     dE             d eps       ncg     rms          rms(c)
DAV:   1    -0.377047793383E+02   -0.98947E-06   -0.14095E-04 10284   0.812E-02    0.761E-03
DAV:   2    -0.377047790438E+02    0.29449E-06   -0.91012E-06 11464   0.399E-02    0.382E-03
DAV:   3    -0.377047788373E+02    0.20649E-06   -0.82648E-07 12440   0.123E-02    0.181E-03
DAV:   4    -0.377047787534E+02    0.83865E-07   -0.16863E-07 12804   0.774E-03    0.421E-04
DAV:   5    -0.377047787463E+02    0.71041E-08   -0.65719E-08 10328   0.285E-03
  38 F= -.37704779E+02 E0= -.37693661E+02  d E =-.129527E-05
 curvature:  -1.25 expect dE=-0.115E-05 dE for cont linesearch -0.379E-07
 trial: gam= 0.57963 g(F)=  0.699E-06 g(S)=  0.224E-06 ort = 0.295E-06 (trialstep = 0.534E+00)
 search vector abs. value=  0.223E-05
 bond charge predicted
       N       E                     dE             d eps       ncg     rms          rms(c)
DAV:   1    -0.377047792983E+02   -0.54481E-06   -0.13022E-04 10128   0.640E-02    0.396E-03
DAV:   2    -0.377047793658E+02   -0.67556E-07   -0.31902E-06 11464   0.186E-02    0.231E-03
DAV:   3    -0.377047793314E+02    0.34427E-07   -0.32887E-07 13160   0.850E-03    0.107E-03
DAV:   4    -0.377047793254E+02    0.59722E-08   -0.74986E-08 10676   0.449E-03
  39 F= -.37704779E+02 E0= -.37693662E+02  d E =-.579073E-06
 ZBRENT: can't locate minimum, use default step
 trial-energy change:   -0.000001  1 .order   -0.000001   -0.000001   -0.000000
 step:   2.1375(harm=  2.8715)  dis= 0.00032  next Energy=   -37.704780 (dE=-0.157E-05)
 bond charge predicted
       N       E                     dE             d eps       ncg     rms          rms(c)
DAV:   1    -0.377047816494E+02   -0.23180E-05   -0.11702E-03 10124   0.192E-01    0.119E-02
DAV:   2    -0.377047821036E+02   -0.45420E-06   -0.28589E-05 11448   0.573E-02    0.696E-03
DAV:   3    -0.377047815661E+02    0.53753E-06   -0.30697E-06 13004   0.279E-02    0.326E-03
DAV:   4    -0.377047814409E+02    0.12515E-06   -0.74334E-07 12236   0.160E-02    0.869E-04
DAV:   5    -0.377047814533E+02   -0.12403E-07   -0.24730E-07 10792   0.506E-03    0.408E-04
DAV:   6    -0.377047814557E+02   -0.24097E-08   -0.29249E-08  7980   0.288E-03
  40 F= -.37704781E+02 E0= -.37693664E+02  d E =-.270938E-05
 curvature:  -2.64 expect dE=-0.506E-05 dE for cont linesearch -0.377E-08
 trial: gam= 2.32399 g(F)=  0.940E-06 g(S)=  0.979E-06 ort = 0.564E-07 (trialstep = 0.134E+00)
 search vector abs. value=  0.142E-04
 bond charge predicted
       N       E                     dE             d eps       ncg     rms          rms(c)
DAV:   1    -0.377047817788E+02   -0.32553E-06   -0.52393E-05 10080   0.423E-02    0.298E-03
DAV:   2    -0.377047817831E+02   -0.43019E-08   -0.16566E-06 11584   0.147E-02    0.156E-03
DAV:   3    -0.377047817399E+02    0.43214E-07   -0.14573E-07 12080   0.594E-03    0.794E-04
DAV:   4    -0.377047817195E+02    0.20408E-07   -0.39756E-08  9144   0.361E-03    0.206E-04
DAV:   5    -0.377047817197E+02   -0.21237E-09   -0.13458E-08  5604   0.185E-03
  41 F= -.37704782E+02 E0= -.37693664E+02  d E =-.264013E-06
 ZBRENT: can't locate minimum, use default step
 trial-energy change:   -0.000000  1 .order   -0.000000   -0.000000   -0.000000
 step:   0.5361(harm=  0.5920)  dis= 0.00021  next Energy=   -37.704782 (dE=-0.607E-06)
 bond charge predicted
       N       E                     dE             d eps       ncg     rms          rms(c)
DAV:   1    -0.377047825702E+02   -0.85066E-06   -0.47006E-04 10080   0.126E-01    0.889E-03
DAV:   2    -0.377047825637E+02    0.64388E-08   -0.14760E-05 11540   0.431E-02    0.466E-03
DAV:   3    -0.377047822553E+02    0.30841E-06   -0.12892E-06 13048   0.153E-02    0.235E-03
DAV:   4    -0.377047821285E+02    0.12687E-06   -0.32651E-07 12260   0.937E-03    0.567E-04
DAV:   5    -0.377047821343E+02   -0.58617E-08   -0.98380E-08 10724   0.476E-03
  42 F= -.37704782E+02 E0= -.37693664E+02  d E =-.678598E-06
 curvature:  -2.02 expect dE=-0.162E-05 dE for cont linesearch -0.355E-09
 trial: gam= 0.43359 g(F)=  0.570E-06 g(S)=  0.229E-06 ort =-0.500E-07 (trialstep = 0.214E+00)
 search vector abs. value=  0.343E-05
 bond charge predicted
       N       E                     dE             d eps       ncg     rms          rms(c)
DAV:   1    -0.377047823950E+02   -0.26658E-06   -0.30381E-05 10112   0.322E-02    0.268E-03
DAV:   2    -0.377047823847E+02    0.10388E-07   -0.10130E-06 11376   0.114E-02    0.151E-03
DAV:   3    -0.377047823387E+02    0.45994E-07   -0.95251E-08 12248   0.386E-03    0.658E-04
DAV:   4    -0.377047823306E+02    0.80950E-08   -0.23926E-08  7076   0.252E-03
  43 F= -.37704782E+02 E0= -.37693664E+02  d E =-.196245E-06
 ZBRENT: can't locate minimum, use default step
 trial-energy change:   -0.000000  1 .order   -0.000000   -0.000000   -0.000000
 step:   0.8578(harm= 12.7757)  dis= 0.00017  next Energy=   -37.704787 (dE=-0.497E-05)
 bond charge predicted
       N       E                     dE             d eps       ncg     rms          rms(c)
DAV:   1    -0.377047833664E+02   -0.10278E-05   -0.27228E-04 10096   0.958E-02    0.793E-03
DAV:   2    -0.377047831310E+02    0.23546E-06   -0.87971E-06 11376   0.335E-02    0.450E-03
DAV:   3    -0.377047828020E+02    0.32896E-06   -0.84220E-07 13656   0.113E-02    0.193E-03
DAV:   4    -0.377047827343E+02    0.67698E-07   -0.21984E-07 11572   0.566E-03    0.430E-04
DAV:   5    -0.377047827339E+02    0.43156E-09   -0.71599E-08 10600   0.224E-03
  44 F= -.37704783E+02 E0= -.37693665E+02  d E =-.599558E-06
 curvature:  -2.81 expect dE=-0.916E-06 dE for cont linesearch -0.136E-06
 ZBRENT: increasing intervall
 opt :   2.1444  next Energy=   -37.704783 (dE=-0.665E-06)
 bond charge predicted
       N       E                     dE             d eps       ncg     rms          rms(c)
DAV:   1    -0.377047838940E+02   -0.11597E-05   -0.10899E-03 10096   0.191E-01    0.159E-02
DAV:   2    -0.377047828470E+02    0.10469E-05   -0.35211E-05 11376   0.670E-02    0.902E-03
DAV:   3    -0.377047816241E+02    0.12229E-05   -0.33353E-06 13784   0.231E-02    0.386E-03
DAV:   4    -0.377047813674E+02    0.25678E-06   -0.92739E-07 11520   0.119E-02    0.856E-04
DAV:   5    -0.377047813750E+02   -0.76443E-08   -0.28227E-07 10740   0.476E-03    0.483E-04
DAV:   6    -0.377047813836E+02   -0.86520E-08   -0.14098E-08  6204   0.233E-03
  45 F= -.37704781E+02 E0= -.37693665E+02  d E =0.750674E-06
 curvature:  -1.35 expect dE=-0.118E-05 dE for cont linesearch -0.732E-07
 trial: gam= 0.00000 g(F)=  0.803E-06 g(S)=  0.717E-07 ort =-0.431E-06 (trialstep = 0.600E+00)
 search vector abs. value=  0.874E-06
 bond charge predicted
       N       E                     dE             d eps       ncg     rms          rms(c)
DAV:   1    -0.377047814677E+02   -0.92703E-07   -0.68165E-05 10076   0.470E-02    0.302E-03
DAV:   2    -0.377047815940E+02   -0.12632E-06   -0.32123E-06 11880   0.145E-02    0.198E-03
DAV:   3    -0.377047815879E+02    0.60991E-08   -0.23846E-07 11832   0.529E-03    0.120E-03
DAV:   4    -0.377047815717E+02    0.16257E-07   -0.84123E-08 11268   0.418E-03    0.402E-04
DAV:   5    -0.377047815808E+02   -0.90904E-08   -0.14806E-08  6028   0.209E-03
  46 F= -.37704782E+02 E0= -.37693664E+02  d E =-.197106E-06
 trial-energy change:   -0.000000  1 .order   -0.000000   -0.000001    0.000000
 step:   0.4952(harm=  0.4952)  dis= 0.00003  next Energy=   -37.704782 (dE=-0.216E-06)
 bond charge predicted
       N       E                     dE             d eps       ncg     rms          rms(c)
DAV:   1    -0.377047815910E+02   -0.19294E-07   -0.20947E-06 10064   0.830E-03    0.530E-04
DAV:   2    -0.377047816023E+02   -0.11363E-07   -0.10339E-07 11548   0.306E-03    0.326E-04
DAV:   3    -0.377047815976E+02    0.47612E-08   -0.75528E-09  5096   0.114E-03
  47 F= -.37704782E+02 E0= -.37693665E+02  d E =-.213911E-06
 curvature:  -0.25 expect dE=-0.959E-07 dE for cont linesearch -0.635E-10
 trial: gam= 0.46013 g(F)=  0.353E-06 g(S)=  0.345E-07 ort =-0.150E-07 (trialstep = 0.579E+00)
 search vector abs. value=  0.559E-06
 bond charge predicted
       N       E                     dE             d eps       ncg     rms          rms(c)
DAV:   1    -0.377047816689E+02   -0.66555E-07   -0.40682E-05 10164   0.408E-02    0.296E-03
DAV:   2    -0.377047817164E+02   -0.47563E-07   -0.23733E-06 11572   0.169E-02    0.135E-03
DAV:   3    -0.377047817331E+02   -0.16619E-07   -0.18118E-07 12272   0.484E-03    0.730E-04
DAV:   4    -0.377047817414E+02   -0.83123E-08   -0.28807E-08  8396   0.209E-03
  48 F= -.37704782E+02 E0= -.37693665E+02  d E =-.143811E-06
 trial-energy change:   -0.000000  1 .order   -0.000000   -0.000000    0.000000
 step:   0.5620(harm=  0.5620)  dis= 0.00003  next Energy=   -37.704782 (dE=-0.107E-06)
 bond charge predicted
       N       E                     dE             d eps       ncg     rms          rms(c)
DAV:   1    -0.377047817482E+02   -0.15094E-07   -0.44371E-08  9004   0.179E-03    0.963E-05
DAV:   2    -0.377047817484E+02   -0.29331E-09   -0.66193E-09  5216   0.120E-03
  49 F= -.37704782E+02 E0= -.37693665E+02  d E =-.150887E-06
 curvature:  -0.41 expect dE=-0.392E-07 dE for cont linesearch -0.723E-08
 trial: gam= 0.04005 g(F)=  0.545E-07 g(S)=  0.404E-07 ort = 0.989E-07 (trialstep = 0.576E+00)
 search vector abs. value=  0.104E-06
 reached required accuracy - stopping structural energy minimisation
 writing wavefunctions
Thu Jan  6 01:20:20 CST 2022
