Thu Jan  6 01:45:21 CST 2022
 running on   48 total cores
 distrk:  each k-point on   48 cores,    1 groups
 distr:  one band on   24 cores,    2 groups
 using from now: INCAR     
 vasp.5.3.5 31Mar14 (build Jan 11 2016 19:50:55) complex                        
  
 POSCAR found type information on POSCAR  Zn Ga N  O 
 POSCAR found :  4 types and       8 ions
 scaLAPACK will be used

 ----------------------------------------------------------------------------- 
|                                                                             |
|           W    W    AA    RRRRR   N    N  II  N    N   GGGG   !!!           |
|           W    W   A  A   R    R  NN   N  II  NN   N  G    G  !!!           |
|           W    W  A    A  R    R  N N  N  II  N N  N  G       !!!           |
|           W WW W  AAAAAA  RRRRR   N  N N  II  N  N N  G  GGG   !            |
|           WW  WW  A    A  R   R   N   NN  II  N   NN  G    G                |
|           W    W  A    A  R    R  N    N  II  N    N   GGGG   !!!           |
|                                                                             |
|      For optimal performance we recommend to set                            |
|        NCORE= 4 - approx SQRT( number of cores)                             |
|      NCORE specifies how many cores store one orbital (NPAR=cpu/NCORE).     |
|      This setting can  greatly improve the performance of VASP for DFT.     |
|      The default, NPAR=number of cores might be grossly inefficient         |
|      on modern multi-core architectures or massively parallel machines.     |
|      Do your own testing !!!!                                               |
|      Unfortunately you need to use the default for GW and RPA calculations. |
|      (for HF NCORE is supported but not extensively tested yet)             |
|                                                                             |
 ----------------------------------------------------------------------------- 

 LDA part: xc-table for Pade appr. of Perdew
 POSCAR, INCAR and KPOINTS ok, starting setup
 WARNING: small aliasing (wrap around) errors must be expected
 FFT: planning ...
 WAVECAR not read
 entering main loop
       N       E                     dE             d eps       ncg     rms          rms(c)
DAV:   1     0.883962663312E+03    0.88396E+03   -0.42166E+04 10212   0.315E+03
DAV:   2     0.141321189516E+03   -0.74264E+03   -0.71382E+03 10008   0.761E+02
DAV:   3    -0.277797230610E+02   -0.16910E+03   -0.16483E+03 11392   0.259E+02
DAV:   4    -0.427476400957E+02   -0.14968E+02   -0.14761E+02 12196   0.774E+01
DAV:   5    -0.432140722966E+02   -0.46643E+00   -0.46415E+00 11596   0.133E+01    0.142E+01
DAV:   6    -0.379253294805E+02    0.52887E+01   -0.24532E+01 18872   0.610E+01    0.692E+00
DAV:   7    -0.381307475270E+02   -0.20542E+00   -0.51982E+00 10564   0.188E+01    0.447E+00
DAV:   8    -0.380958764188E+02    0.34871E-01   -0.11679E+00 14328   0.923E+00    0.221E+00
DAV:   9    -0.380702309507E+02    0.25645E-01   -0.20257E-01 11340   0.460E+00    0.913E-01
DAV:  10    -0.380582536616E+02    0.11977E-01   -0.96519E-02 16596   0.309E+00    0.238E-01
DAV:  11    -0.380593767483E+02   -0.11231E-02   -0.13649E-02 11120   0.125E+00    0.124E-01
DAV:  12    -0.380598950616E+02   -0.51831E-03   -0.20500E-03 12964   0.610E-01    0.641E-02
DAV:  13    -0.380600266718E+02   -0.13161E-03   -0.69720E-04 11144   0.355E-01    0.189E-02
DAV:  14    -0.380600648252E+02   -0.38153E-04   -0.10492E-04 11496   0.191E-01    0.100E-02
DAV:  15    -0.380600732132E+02   -0.83880E-05   -0.27359E-05 11632   0.809E-02    0.549E-03
DAV:  16    -0.380600767066E+02   -0.34934E-05   -0.81441E-06 11060   0.335E-02    0.303E-03
DAV:  17    -0.380600770146E+02   -0.30799E-06   -0.18149E-06 11888   0.239E-02    0.145E-03
DAV:  18    -0.380600770822E+02   -0.67565E-07   -0.58448E-07 11960   0.842E-03    0.653E-04
DAV:  19    -0.380600770865E+02   -0.43151E-08   -0.13102E-07 11380   0.353E-03    0.405E-04
DAV:  20    -0.380600770902E+02   -0.37071E-08   -0.21122E-08  7576   0.262E-03
   1 F= -.38060077E+02 E0= -.38041886E+02  d E =-.380601E+02
 curvature:   0.00 expect dE= 0.000E+00 dE for cont linesearch  0.000E+00
 trial: gam= 0.00000 g(F)=  0.183E-03 g(S)=  0.129E-02 ort = 0.000E+00 (trialstep = 0.100E+01)
 search vector abs. value=  0.147E-02
 bond charge predicted
       N       E                     dE             d eps       ncg     rms          rms(c)
DAV:   1    -0.380663734118E+02   -0.62963E-02   -0.17696E-01 12784   0.441E+00    0.594E-01
DAV:   2    -0.380618021708E+02    0.45712E-02   -0.31418E-02 11972   0.241E+00    0.271E-01
DAV:   3    -0.380607786912E+02    0.10235E-02   -0.25250E-03 14424   0.548E-01    0.130E-01
DAV:   4    -0.380604188595E+02    0.35983E-03   -0.46280E-04 14736   0.366E-01    0.268E-02
DAV:   5    -0.380604223289E+02   -0.34694E-05   -0.23691E-04 10960   0.172E-01    0.118E-02
DAV:   6    -0.380604238102E+02   -0.14813E-05   -0.36966E-05 13068   0.581E-02    0.794E-03
DAV:   7    -0.380604235526E+02    0.25758E-06   -0.32341E-06 13520   0.495E-02    0.440E-03
DAV:   8    -0.380604238064E+02   -0.25377E-06   -0.12819E-06 14012   0.126E-02    0.173E-03
DAV:   9    -0.380604238707E+02   -0.64313E-07   -0.36190E-07 12528   0.945E-03    0.621E-04
DAV:  10    -0.380604238969E+02   -0.26228E-07   -0.76663E-08 11208   0.346E-03    0.317E-04
DAV:  11    -0.380604239047E+02   -0.77362E-08   -0.19003E-08  6696   0.249E-03
   2 F= -.38060424E+02 E0= -.38042150E+02  d E =-.346814E-03
 trial-energy change:   -0.000347  1 .order   -0.000349   -0.001470    0.000772
 step:   0.6556(harm=  0.6556)  dis= 0.00087  next Energy=   -38.060559 (dE=-0.482E-03)
 bond charge predicted
       N       E                     dE             d eps       ncg     rms          rms(c)
DAV:   1    -0.380612590247E+02   -0.83513E-03   -0.20909E-02 12752   0.151E+00    0.205E-01
DAV:   2    -0.380607182680E+02    0.54076E-03   -0.37476E-03 11980   0.832E-01    0.932E-02
DAV:   3    -0.380605992937E+02    0.11897E-03   -0.29603E-04 14584   0.189E-01    0.449E-02
DAV:   4    -0.380605579773E+02    0.41316E-04   -0.53891E-05 14692   0.124E-01    0.914E-03
DAV:   5    -0.380605587662E+02   -0.78891E-06   -0.28150E-05 10940   0.582E-02    0.403E-03
DAV:   6    -0.380605589491E+02   -0.18289E-06   -0.41602E-06 12900   0.193E-02    0.269E-03
DAV:   7    -0.380605588634E+02    0.85691E-07   -0.38103E-07 13424   0.166E-02    0.148E-03
DAV:   8    -0.380605588240E+02    0.39423E-07   -0.14872E-07 12716   0.388E-03    0.589E-04
DAV:   9    -0.380605588146E+02    0.93632E-08   -0.39210E-08  9840   0.331E-03
   3 F= -.38060559E+02 E0= -.38042313E+02  d E =-.481724E-03
 curvature:  -0.33 expect dE=-0.159E-02 dE for cont linesearch -0.187E-07
 trial: gam= 3.29667 g(F)=  0.430E-02 g(S)=  0.541E-03 ort =-0.915E-05 (trialstep = 0.660E-01)
 search vector abs. value=  0.208E-01
 bond charge predicted
       N       E                     dE             d eps       ncg     rms          rms(c)
DAV:   1    -0.380611317310E+02   -0.57291E-03   -0.11064E-02 11292   0.887E-01    0.128E-01
DAV:   2    -0.380609279876E+02    0.20374E-03   -0.14391E-03 11532   0.546E-01    0.618E-02
DAV:   3    -0.380608764522E+02    0.51535E-04   -0.14424E-04 13180   0.143E-01    0.297E-02
DAV:   4    -0.380608593633E+02    0.17089E-04   -0.31689E-05 13368   0.951E-02    0.747E-03
DAV:   5    -0.380608593745E+02   -0.11211E-07   -0.13538E-05 10676   0.466E-02    0.295E-03
DAV:   6    -0.380608594320E+02   -0.57442E-07   -0.21834E-06 11932   0.240E-02    0.189E-03
DAV:   7    -0.380608594446E+02   -0.12623E-07   -0.30332E-07 12096   0.133E-02    0.923E-04
DAV:   8    -0.380608594710E+02   -0.26389E-07   -0.11589E-07 12096   0.387E-03    0.306E-04
DAV:   9    -0.380608594807E+02   -0.96866E-08   -0.13664E-08  6068   0.230E-03
   4 F= -.38060859E+02 E0= -.38042597E+02  d E =-.300666E-03
 ZBRENT: can't locate minimum, use default step
 trial-energy change:   -0.000301  1 .order   -0.000300   -0.000317   -0.000282
 step:   0.2638(harm=  0.5994)  dis= 0.00171  next Energy=   -38.061525 (dE=-0.966E-03)
 bond charge predicted
       N       E                     dE             d eps       ncg     rms          rms(c)
DAV:   1    -0.380639800784E+02   -0.31206E-02   -0.99413E-02 11284   0.266E+00    0.383E-01
DAV:   2    -0.380621492656E+02    0.18308E-02   -0.12915E-02 11532   0.164E+00    0.185E-01
DAV:   3    -0.380616923356E+02    0.45693E-03   -0.12957E-03 13140   0.428E-01    0.889E-02
DAV:   4    -0.380615414294E+02    0.15091E-03   -0.28546E-04 13432   0.281E-01    0.223E-02
DAV:   5    -0.380615428096E+02   -0.13802E-05   -0.12072E-04 10688   0.139E-01    0.884E-03
DAV:   6    -0.380615435278E+02   -0.71815E-06   -0.19374E-05 11904   0.720E-02    0.568E-03
DAV:   7    -0.380615435705E+02   -0.42674E-07   -0.26966E-06 12036   0.388E-02    0.278E-03
DAV:   8    -0.380615437012E+02   -0.13073E-06   -0.10239E-06 12716   0.118E-02    0.924E-04
DAV:   9    -0.380615437381E+02   -0.36890E-07   -0.13624E-07 11536   0.701E-03    0.548E-04
DAV:  10    -0.380615437668E+02   -0.28673E-07   -0.40056E-08  9140   0.365E-03    0.164E-04
DAV:  11    -0.380615437724E+02   -0.56793E-08   -0.81647E-09  5924   0.161E-03
   5 F= -.38061544E+02 E0= -.38043231E+02  d E =-.984958E-03
 curvature:  -0.78 expect dE=-0.130E-02 dE for cont linesearch -0.260E-03
 ZBRENT: increasing intervall
 opt :   0.6596  next Energy=   -38.061928 (dE=-0.137E-02)
 bond charge predicted
       N       E                     dE             d eps       ncg     rms          rms(c)
DAV:   1    -0.380716052887E+02   -0.10062E-01   -0.39641E-01 11244   0.532E+00    0.764E-01
DAV:   2    -0.380643407673E+02    0.72645E-02   -0.51545E-02 11528   0.326E+00    0.369E-01
DAV:   3    -0.380625311204E+02    0.18096E-02   -0.51752E-03 13036   0.851E-01    0.177E-01
DAV:   4    -0.380619325249E+02    0.59860E-03   -0.11405E-03 13452   0.562E-01    0.447E-02
DAV:   5    -0.380619390915E+02   -0.65666E-05   -0.47895E-04 10684   0.281E-01    0.177E-02
DAV:   6    -0.380619422927E+02   -0.32012E-05   -0.78046E-05 11888   0.144E-01    0.114E-02
DAV:   7    -0.380619424012E+02   -0.10850E-06   -0.10819E-05 12068   0.772E-02    0.559E-03
DAV:   8    -0.380619428135E+02   -0.41236E-06   -0.40625E-06 12704   0.236E-02    0.185E-03
DAV:   9    -0.380619429146E+02   -0.10103E-06   -0.55262E-07 11728   0.141E-02    0.110E-03
DAV:  10    -0.380619429820E+02   -0.67463E-07   -0.16447E-07 10856   0.733E-03    0.330E-04
DAV:  11    -0.380619429949E+02   -0.12891E-07   -0.35322E-08  9212   0.311E-03    0.121E-04
DAV:  12    -0.380619429956E+02   -0.63346E-09   -0.10407E-08  6020   0.166E-03
   6 F= -.38061943E+02 E0= -.38043524E+02  d E =-.138418E-02
 curvature:  -1.16 expect dE=-0.138E-02 dE for cont linesearch -0.207E-04
 ZBRENT: bracketing found
 ZBRENT: interpolating
 opt :   0.5851  next Energy=   -38.061966 (dE=-0.141E-02)
 bond charge predicted
       N       E                     dE             d eps       ncg     rms          rms(c)
DAV:   1    -0.380623074168E+02   -0.36442E-03   -0.13998E-02 11224   0.993E-01    0.144E-01
DAV:   2    -0.380620493611E+02    0.25806E-03   -0.18211E-03 11528   0.614E-01    0.693E-02
DAV:   3    -0.380619865306E+02    0.62830E-04   -0.18138E-04 13120   0.162E-01    0.334E-02
DAV:   4    -0.380619659231E+02    0.20608E-04   -0.41146E-05 13412   0.106E-01    0.838E-03
DAV:   5    -0.380619664565E+02   -0.53348E-06   -0.16979E-05 10680   0.533E-02    0.333E-03
DAV:   6    -0.380619666151E+02   -0.15850E-06   -0.27978E-06 11940   0.278E-02    0.213E-03
DAV:   7    -0.380619666022E+02    0.12824E-07   -0.39501E-07 11976   0.145E-02    0.103E-03
DAV:   8    -0.380619665924E+02    0.98385E-08   -0.14521E-07 12280   0.453E-03    0.356E-04
DAV:   9    -0.380619665849E+02    0.74938E-08   -0.18347E-08  6696   0.269E-03
   7 F= -.38061967E+02 E0= -.38043568E+02  d E =-.140777E-02
 curvature:  -1.27 expect dE=-0.112E-02 dE for cont linesearch -0.127E-07
 trial: gam= 0.18051 g(F)=  0.598E-03 g(S)=  0.286E-03 ort =-0.144E-04 (trialstep = 0.170E+00)
 search vector abs. value=  0.155E-02
 bond charge predicted
       N       E                     dE             d eps       ncg     rms          rms(c)
DAV:   1    -0.380621419264E+02   -0.17533E-03   -0.67335E-03 10020   0.488E-01    0.550E-02
DAV:   2    -0.380621246241E+02    0.17302E-04   -0.30270E-04 11360   0.201E-01    0.320E-02
DAV:   3    -0.380621098952E+02    0.14729E-04   -0.32843E-05 13396   0.883E-02    0.125E-02
DAV:   4    -0.380621076943E+02    0.22009E-05   -0.98646E-06 11164   0.537E-02    0.259E-03
DAV:   5    -0.380621079082E+02   -0.21394E-06   -0.31190E-06 10988   0.246E-02    0.158E-03
DAV:   6    -0.380621079298E+02   -0.21612E-07   -0.47601E-07 12228   0.135E-02    0.943E-04
DAV:   7    -0.380621079311E+02   -0.13033E-08   -0.93632E-08 10704   0.565E-03
   8 F= -.38062108E+02 E0= -.38043698E+02  d E =-.141346E-03
 ZBRENT: can't locate minimum, use default step
 trial-energy change:   -0.000141  1 .order   -0.000143   -0.000150   -0.000137
 step:   0.6791(harm=  1.9543)  dis= 0.00277  next Energy=   -38.062827 (dE=-0.861E-03)
 bond charge predicted
       N       E                     dE             d eps       ncg     rms          rms(c)
DAV:   1    -0.380627709404E+02   -0.66301E-03   -0.60614E-02 10016   0.146E+00    0.165E-01
DAV:   2    -0.380626151818E+02    0.15576E-03   -0.27252E-03 11360   0.602E-01    0.959E-02
DAV:   3    -0.380624811739E+02    0.13401E-03   -0.29549E-04 13336   0.264E-01    0.376E-02
DAV:   4    -0.380624611187E+02    0.20055E-04   -0.89106E-05 11220   0.160E-01    0.777E-03
DAV:   5    -0.380624630890E+02   -0.19703E-05   -0.27939E-05 10988   0.735E-02    0.476E-03
DAV:   6    -0.380624632697E+02   -0.18068E-06   -0.42422E-06 12244   0.403E-02    0.283E-03
DAV:   7    -0.380624632965E+02   -0.26756E-07   -0.83086E-07 11344   0.167E-02    0.105E-03
DAV:   8    -0.380624632976E+02   -0.11555E-08   -0.19640E-07 12744   0.621E-03    0.429E-04
DAV:   9    -0.380624633009E+02   -0.32883E-08   -0.58170E-08  9664   0.319E-03
   9 F= -.38062463E+02 E0= -.38044017E+02  d E =-.496716E-03
 curvature:  -0.84 expect dE=-0.362E-03 dE for cont linesearch -0.181E-03
 ZBRENT: increasing intervall
 opt :   1.6978  next Energy=   -38.062822 (dE=-0.855E-03)
 bond charge predicted
       N       E                     dE             d eps       ncg     rms          rms(c)
DAV:   1    -0.380640592783E+02   -0.15960E-02   -0.24247E-01 10016   0.293E+00    0.330E-01
DAV:   2    -0.380634327714E+02    0.62651E-03   -0.10902E-02 11368   0.120E+00    0.192E-01
DAV:   3    -0.380628948531E+02    0.53792E-03   -0.11777E-03 13424   0.531E-01    0.754E-02
DAV:   4    -0.380628137263E+02    0.81127E-04   -0.35722E-04 11180   0.331E-01    0.156E-02
DAV:   5    -0.380628218186E+02   -0.80923E-05   -0.11375E-04 10984   0.150E-01    0.950E-03
DAV:   6    -0.380628225996E+02   -0.78102E-06   -0.17562E-05 12180   0.802E-02    0.566E-03
DAV:   7    -0.380628227281E+02   -0.12845E-06   -0.34716E-06 11480   0.354E-02    0.206E-03
DAV:   8    -0.380628227813E+02   -0.53249E-07   -0.92687E-07 13652   0.122E-02    0.855E-04
DAV:   9    -0.380628227936E+02   -0.12236E-07   -0.18301E-07 10804   0.493E-03    0.427E-04
DAV:  10    -0.380628227906E+02    0.29413E-08   -0.28270E-08  8184   0.414E-03
  10 F= -.38062823E+02 E0= -.38044304E+02  d E =-.856206E-03
 curvature:  -1.67 expect dE=-0.568E-03 dE for cont linesearch -0.162E-04
 ZBRENT: extrapolating
 opt :   1.9726  next Energy=   -38.062840 (dE=-0.873E-03)
 bond charge predicted
       N       E                     dE             d eps       ncg     rms          rms(c)
DAV:   1    -0.380629287207E+02   -0.10593E-03   -0.17655E-02 10024   0.792E-01    0.892E-02
DAV:   2    -0.380628831227E+02    0.45598E-04   -0.79961E-04 11352   0.327E-01    0.518E-02
DAV:   3    -0.380628444039E+02    0.38719E-04   -0.86522E-05 13368   0.143E-01    0.204E-02
DAV:   4    -0.380628384757E+02    0.59282E-05   -0.25909E-05 11244   0.869E-02    0.422E-03
DAV:   5    -0.380628390483E+02   -0.57254E-06   -0.82022E-06 10988   0.400E-02    0.256E-03
DAV:   6    -0.380628391040E+02   -0.55716E-07   -0.12515E-06 12208   0.218E-02    0.154E-03
DAV:   7    -0.380628391105E+02   -0.64742E-08   -0.24683E-07 11356   0.912E-03    0.566E-04
DAV:   8    -0.380628391060E+02    0.44051E-08   -0.55152E-08  9080   0.339E-03
  11 F= -.38062839E+02 E0= -.38044300E+02  d E =-.872521E-03
 curvature:  -1.74 expect dE=-0.770E-03 dE for cont linesearch -0.178E-08
 trial: gam= 0.51609 g(F)=  0.365E-03 g(S)=  0.775E-04 ort =-0.126E-05 (trialstep = 0.530E+00)
 search vector abs. value=  0.855E-03
 bond charge predicted
       N       E                     dE             d eps       ncg     rms          rms(c)
DAV:   1    -0.380632709756E+02   -0.43187E-03   -0.34462E-02 10148   0.118E+00    0.134E-01
DAV:   2    -0.380631360842E+02    0.13489E-03   -0.18813E-03 11532   0.529E-01    0.738E-02
DAV:   3    -0.380630622925E+02    0.73792E-04   -0.19642E-04 13160   0.204E-01    0.325E-02
DAV:   4    -0.380630453901E+02    0.16902E-04   -0.62359E-05 11756   0.121E-01    0.576E-03
DAV:   5    -0.380630469255E+02   -0.15355E-05   -0.20410E-05 10688   0.582E-02    0.336E-03
DAV:   6    -0.380630471068E+02   -0.18130E-06   -0.29930E-06 12808   0.259E-02    0.201E-03
DAV:   7    -0.380630471222E+02   -0.15384E-07   -0.59049E-07 12372   0.170E-02    0.734E-04
DAV:   8    -0.380630471299E+02   -0.76320E-08   -0.18631E-07 11084   0.666E-03    0.315E-04
DAV:   9    -0.380630471310E+02   -0.11801E-08   -0.56706E-08  7912   0.235E-03
  12 F= -.38063047E+02 E0= -.38044487E+02  d E =-.208025E-03
 ZBRENT: can't locate minimum, use default step
 trial-energy change:   -0.000208  1 .order   -0.000209   -0.000234   -0.000184
 step:   2.1214(harm=  2.4840)  dis= 0.00412  next Energy=   -38.063388 (dE=-0.549E-03)
 bond charge predicted
       N       E                     dE             d eps       ncg     rms          rms(c)
DAV:   1    -0.380654074200E+02   -0.23603E-02   -0.31010E-01 10148   0.352E+00    0.401E-01
DAV:   2    -0.380641865878E+02    0.12208E-02   -0.16875E-02 11532   0.158E+00    0.222E-01
DAV:   3    -0.380635141495E+02    0.67244E-03   -0.17507E-03 13064   0.604E-01    0.977E-02
DAV:   4    -0.380633602645E+02    0.15388E-03   -0.56439E-04 11772   0.365E-01    0.172E-02
DAV:   5    -0.380633732922E+02   -0.13028E-04   -0.18390E-04 10648   0.178E-01    0.101E-02
DAV:   6    -0.380633749356E+02   -0.16434E-05   -0.27403E-05 12836   0.766E-02    0.602E-03
DAV:   7    -0.380633751463E+02   -0.21074E-06   -0.53959E-06 12432   0.522E-02    0.220E-03
DAV:   8    -0.380633752656E+02   -0.11925E-06   -0.16973E-06 12204   0.201E-02    0.937E-04
DAV:   9    -0.380633753057E+02   -0.40067E-07   -0.52268E-07 11392   0.651E-03    0.574E-04
DAV:  10    -0.380633752981E+02    0.75474E-08   -0.80913E-08 10008   0.681E-03
  13 F= -.38063375E+02 E0= -.38044750E+02  d E =-.536192E-03
 curvature:  -2.32 expect dE=-0.966E-03 dE for cont linesearch -0.113E-04
 trial: gam= 0.79734 g(F)=  0.368E-03 g(S)=  0.482E-04 ort = 0.645E-04 (trialstep = 0.683E+00)
 search vector abs. value=  0.106E-02
 bond charge predicted
       N       E                     dE             d eps       ncg     rms          rms(c)
DAV:   1    -0.380633137629E+02    0.61543E-04   -0.92399E-02 10000   0.177E+00    0.132E-01
DAV:   2    -0.380634505679E+02   -0.13680E-03   -0.37791E-03 11252   0.510E-01    0.852E-02
DAV:   3    -0.380633391111E+02    0.11146E-03   -0.29891E-04 13496   0.226E-01    0.369E-02
DAV:   4    -0.380633240772E+02    0.15034E-04   -0.11746E-04 11120   0.132E-01    0.108E-02
DAV:   5    -0.380633253940E+02   -0.13168E-05   -0.22367E-05 11356   0.508E-02    0.549E-03
DAV:   6    -0.380633254588E+02   -0.64713E-07   -0.23150E-06 11796   0.331E-02    0.289E-03
DAV:   7    -0.380633255208E+02   -0.62040E-07   -0.83592E-07 12560   0.155E-02    0.111E-03
DAV:   8    -0.380633255439E+02   -0.23118E-07   -0.20659E-07 13460   0.625E-03    0.432E-04
DAV:   9    -0.380633255467E+02   -0.28226E-08   -0.31486E-08  8048   0.186E-03
  14 F= -.38063326E+02 E0= -.38044650E+02  d E =0.497514E-04
 trial-energy change:    0.000050  1 .order    0.000047   -0.000319    0.000414
 step:   0.2940(harm=  0.2975)  dis= 0.00093  next Energy=   -38.063444 (dE=-0.685E-04)
 bond charge predicted
       N       E                     dE             d eps       ncg     rms          rms(c)
DAV:   1    -0.380634373199E+02   -0.11178E-03   -0.29969E-02  9992   0.101E+00    0.749E-02
DAV:   2    -0.380634832581E+02   -0.45938E-04   -0.12282E-03 11244   0.291E-01    0.485E-02
DAV:   3    -0.380634478691E+02    0.35389E-04   -0.99188E-05 13640   0.130E-01    0.209E-02
DAV:   4    -0.380634433846E+02    0.44845E-05   -0.37761E-05 11144   0.726E-02    0.605E-03
DAV:   5    -0.380634436434E+02   -0.25875E-06   -0.71530E-06 11204   0.247E-02    0.312E-03
DAV:   6    -0.380634436281E+02    0.15254E-07   -0.53705E-07 12048   0.131E-02    0.161E-03
DAV:   7    -0.380634436019E+02    0.26203E-07   -0.22553E-07 11616   0.696E-03    0.612E-04
DAV:   8    -0.380634436008E+02    0.11505E-08   -0.47222E-08 10428   0.330E-03
  15 F= -.38063444E+02 E0= -.38044797E+02  d E =-.683027E-04
 curvature:  -0.34 expect dE=-0.177E-03 dE for cont linesearch -0.695E-08
 trial: gam= 1.38291 g(F)=  0.470E-03 g(S)=  0.523E-04 ort = 0.467E-05 (trialstep = 0.250E+00)
 search vector abs. value=  0.257E-02
 bond charge predicted
       N       E                     dE             d eps       ncg     rms          rms(c)
DAV:   1    -0.380635754843E+02   -0.13188E-03   -0.31300E-02  9996   0.104E+00    0.773E-02
DAV:   2    -0.380635854971E+02   -0.10013E-04   -0.11931E-03 11276   0.364E-01    0.384E-02
DAV:   3    -0.380635695989E+02    0.15898E-04   -0.98323E-05 13068   0.145E-01    0.201E-02
DAV:   4    -0.380635631497E+02    0.64491E-05   -0.23032E-05 12152   0.111E-01    0.549E-03
DAV:   5    -0.380635634707E+02   -0.32094E-06   -0.82024E-06 11032   0.492E-02    0.200E-03
DAV:   6    -0.380635636447E+02   -0.17404E-06   -0.21391E-06 11084   0.165E-02    0.161E-03
DAV:   7    -0.380635636377E+02    0.70154E-08   -0.28371E-07 12432   0.131E-02    0.700E-04
DAV:   8    -0.380635636338E+02    0.39413E-08   -0.87633E-08 12596   0.436E-03
  16 F= -.38063564E+02 E0= -.38044894E+02  d E =-.120033E-03
 ZBRENT: can't locate minimum, use default step
 trial-energy change:   -0.000120  1 .order   -0.000121   -0.000132   -0.000110
 step:   1.0018(harm=  1.4802)  dis= 0.00572  next Energy=   -38.063835 (dE=-0.392E-03)
 bond charge predicted
       N       E                     dE             d eps       ncg     rms          rms(c)
DAV:   1    -0.380639061218E+02   -0.34248E-03   -0.28165E-01 10000   0.311E+00    0.232E-01
DAV:   2    -0.380639934963E+02   -0.87375E-04   -0.10702E-02 11340   0.109E+00    0.115E-01
DAV:   3    -0.380638459548E+02    0.14754E-03   -0.86386E-04 12760   0.443E-01    0.604E-02
DAV:   4    -0.380637878266E+02    0.58128E-04   -0.22065E-04 12200   0.348E-01    0.166E-02
DAV:   5    -0.380637905812E+02   -0.27546E-05   -0.77993E-05 11344   0.155E-01    0.604E-03
DAV:   6    -0.380637922109E+02   -0.16297E-05   -0.20842E-05 11072   0.488E-02    0.484E-03
DAV:   7    -0.380637921906E+02    0.20299E-07   -0.26118E-06 12580   0.394E-02    0.215E-03
DAV:   8    -0.380637922264E+02   -0.35719E-07   -0.86831E-07 15624   0.130E-02    0.784E-04
DAV:   9    -0.380637922304E+02   -0.40418E-08   -0.11489E-07 11364   0.268E-03    0.513E-04
DAV:  10    -0.380637922277E+02    0.26816E-08   -0.24583E-08  7916   0.221E-03
  17 F= -.38063792E+02 E0= -.38045057E+02  d E =-.348627E-03
 curvature:  -3.05 expect dE=-0.207E-02 dE for cont linesearch -0.344E-04
 ZBRENT: increasing intervall
 opt :   2.5045  next Energy=   -38.063643 (dE=-0.200E-03)
 bond charge predicted
       N       E                     dE             d eps       ncg     rms          rms(c)
DAV:   1    -0.380641440809E+02   -0.35185E-03   -0.11265E+00 10000   0.621E+00    0.464E-01
DAV:   2    -0.380644766923E+02   -0.33261E-03   -0.42739E-02 11460   0.216E+00    0.231E-01
DAV:   3    -0.380638683943E+02    0.60830E-03   -0.33513E-03 12632   0.902E-01    0.121E-01
DAV:   4    -0.380636350890E+02    0.23331E-03   -0.91057E-04 12184   0.708E-01    0.336E-02
DAV:   5    -0.380636464149E+02   -0.11326E-04   -0.32451E-04 11432   0.318E-01    0.122E-02
DAV:   6    -0.380636529650E+02   -0.65501E-05   -0.86176E-05 11176   0.984E-02    0.967E-03
DAV:   7    -0.380636529491E+02    0.15878E-07   -0.10635E-05 12680   0.774E-02    0.439E-03
DAV:   8    -0.380636531730E+02   -0.22384E-06   -0.36170E-06 15756   0.257E-02    0.162E-03
DAV:   9    -0.380636531984E+02   -0.25419E-07   -0.45376E-07 12068   0.594E-03    0.103E-03
DAV:  10    -0.380636531963E+02    0.21014E-08   -0.11019E-07 11848   0.453E-03    0.488E-04
DAV:  11    -0.380636531908E+02    0.54979E-08   -0.25754E-08  7112   0.370E-03
  18 F= -.38063653E+02 E0= -.38044788E+02  d E =-.209590E-03
 curvature:  13.21 expect dE= 0.229E-01 dE for cont linesearch  0.725E-03
 ZBRENT: bracketing found
 ZBRENT: interpolating
 opt :   1.4704  next Energy=   -38.063832 (dE=-0.389E-03)
 bond charge predicted
       N       E                     dE             d eps       ncg     rms          rms(c)
DAV:   1    -0.380640362564E+02   -0.38306E-03   -0.53446E-01  9996   0.432E+00    0.321E-01
DAV:   2    -0.380642312935E+02   -0.19504E-03   -0.20753E-02 11420   0.153E+00    0.159E-01
DAV:   3    -0.380639559892E+02    0.27530E-03   -0.16825E-03 13140   0.588E-01    0.829E-02
DAV:   4    -0.380638403091E+02    0.11568E-03   -0.36858E-04 12080   0.434E-01    0.227E-02
DAV:   5    -0.380638442031E+02   -0.38940E-05   -0.13352E-04 10892   0.193E-01    0.823E-03
DAV:   6    -0.380638466781E+02   -0.24750E-05   -0.33743E-05 11160   0.689E-02    0.663E-03
DAV:   7    -0.380638467028E+02   -0.24628E-07   -0.47687E-06 12244   0.537E-02    0.283E-03
DAV:   8    -0.380638468574E+02   -0.15461E-06   -0.14942E-06 14408   0.178E-02    0.100E-03
DAV:   9    -0.380638468867E+02   -0.29277E-07   -0.24602E-07 12160   0.411E-03    0.730E-04
DAV:  10    -0.380638468980E+02   -0.11329E-07   -0.56831E-08 10516   0.463E-03    0.310E-04
DAV:  11    -0.380638469036E+02   -0.56116E-08   -0.11661E-08  6176   0.294E-03
  19 F= -.38063847E+02 E0= -.38045071E+02  d E =-.403303E-03
 curvature:  -0.73 expect dE=-0.659E-03 dE for cont linesearch -0.135E-09
 trial: gam= 0.79607 g(F)=  0.757E-03 g(S)=  0.150E-03 ort = 0.691E-06 (trialstep = 0.494E+00)
 search vector abs. value=  0.254E-02
 bond charge predicted
       N       E                     dE             d eps       ncg     rms          rms(c)
DAV:   1    -0.380636341174E+02    0.21278E-03   -0.12254E-01 10220   0.239E+00    0.203E-01
DAV:   2    -0.380637620923E+02   -0.12797E-03   -0.99250E-03 11560   0.101E+00    0.101E-01
DAV:   3    -0.380636751675E+02    0.86925E-04   -0.71124E-04 12268   0.299E-01    0.598E-02
DAV:   4    -0.380636223311E+02    0.52836E-04   -0.16469E-04 12740   0.268E-01    0.198E-02
DAV:   5    -0.380636209985E+02    0.13326E-05   -0.47851E-05 11228   0.141E-01    0.548E-03
DAV:   6    -0.380636219677E+02   -0.96918E-06   -0.14978E-05 10876   0.403E-02    0.366E-03
DAV:   7    -0.380636218010E+02    0.16669E-06   -0.15834E-06 13048   0.326E-02    0.178E-03
DAV:   8    -0.380636217622E+02    0.38816E-07   -0.53496E-07 13148   0.976E-03    0.656E-04
DAV:   9    -0.380636217695E+02   -0.73615E-08   -0.81696E-08 10024   0.340E-03
  20 F= -.38063622E+02 E0= -.38044826E+02  d E =0.225134E-03
 trial-energy change:    0.000225  1 .order    0.000229   -0.000449    0.000907
 step:   0.1656(harm=  0.1637)  dis= 0.00076  next Energy=   -38.063922 (dE=-0.753E-04)
 bond charge predicted
       N       E                     dE             d eps       ncg     rms          rms(c)
DAV:   1    -0.380639320147E+02   -0.31025E-03   -0.54290E-02 10228   0.160E+00    0.135E-01
DAV:   2    -0.380639880652E+02   -0.56050E-04   -0.43901E-03 11540   0.671E-01    0.671E-02
DAV:   3    -0.380639481279E+02    0.39937E-04   -0.31375E-04 12500   0.196E-01    0.398E-02
DAV:   4    -0.380639231074E+02    0.25021E-04   -0.70656E-05 12812   0.173E-01    0.132E-02
DAV:   5    -0.380639219993E+02    0.11080E-05   -0.20406E-05 11228   0.906E-02    0.364E-03
DAV:   6    -0.380639224455E+02   -0.44614E-06   -0.62186E-06 10884   0.265E-02    0.244E-03
DAV:   7    -0.380639224706E+02   -0.25178E-07   -0.66567E-07 12984   0.213E-02    0.118E-03
DAV:   8    -0.380639225200E+02   -0.49322E-07   -0.21978E-07 12856   0.634E-03    0.432E-04
DAV:   9    -0.380639225246E+02   -0.46689E-08   -0.36118E-08  8664   0.234E-03
  21 F= -.38063923E+02 E0= -.38045139E+02  d E =-.756210E-04
 curvature:  -0.23 expect dE=-0.637E-04 dE for cont linesearch -0.330E-09
 trial: gam= 0.31023 g(F)=  0.248E-03 g(S)=  0.309E-04 ort =-0.191E-05 (trialstep = 0.429E+00)
 search vector abs. value=  0.521E-03
 bond charge predicted
       N       E                     dE             d eps       ncg     rms          rms(c)
DAV:   1    -0.380640411152E+02   -0.11860E-03   -0.19333E-02 10108   0.769E-01    0.503E-02
DAV:   2    -0.380640421006E+02   -0.98539E-06   -0.41358E-04 12104   0.205E-01    0.295E-02
DAV:   3    -0.380640321356E+02    0.99650E-05   -0.34134E-05 12676   0.919E-02    0.137E-02
DAV:   4    -0.380640294091E+02    0.27265E-05   -0.96638E-06 12380   0.625E-02    0.303E-03
DAV:   5    -0.380640296164E+02   -0.20730E-06   -0.32219E-06 10848   0.289E-02    0.158E-03
DAV:   6    -0.380640296612E+02   -0.44821E-07   -0.77394E-07 12316   0.133E-02    0.105E-03
DAV:   7    -0.380640296512E+02    0.10066E-07   -0.11898E-07 11136   0.763E-03    0.365E-04
DAV:   8    -0.380640296485E+02    0.26625E-08   -0.34733E-08  7880   0.283E-03
  22 F= -.38064030E+02 E0= -.38045227E+02  d E =-.107124E-03
 ZBRENT: can't locate minimum, use default step
 trial-energy change:   -0.000107  1 .order   -0.000108   -0.000119   -0.000096
 step:   1.7147(harm=  2.1986)  dis= 0.00334  next Energy=   -38.064228 (dE=-0.306E-03)
 bond charge predicted
       N       E                     dE             d eps       ncg     rms          rms(c)
DAV:   1    -0.380643169750E+02   -0.28732E-03   -0.17394E-01 10108   0.230E+00    0.151E-01
DAV:   2    -0.380643265780E+02   -0.96030E-05   -0.37153E-03 12152   0.611E-01    0.886E-02
DAV:   3    -0.380642355828E+02    0.90995E-04   -0.30206E-04 12660   0.273E-01    0.412E-02
DAV:   4    -0.380642110362E+02    0.24547E-04   -0.86513E-05 12344   0.185E-01    0.909E-03
DAV:   5    -0.380642128369E+02   -0.18007E-05   -0.28830E-05 10832   0.867E-02    0.473E-03
DAV:   6    -0.380642132607E+02   -0.42382E-06   -0.69117E-06 12344   0.398E-02    0.316E-03
DAV:   7    -0.380642132583E+02    0.24133E-08   -0.10858E-06 11744   0.229E-02    0.109E-03
DAV:   8    -0.380642132753E+02   -0.17018E-07   -0.35404E-07 12572   0.858E-03    0.500E-04
DAV:   9    -0.380642132791E+02   -0.38199E-08   -0.72133E-08 10196   0.333E-03
  23 F= -.38064213E+02 E0= -.38045350E+02  d E =-.290754E-03
 curvature:  -1.91 expect dE=-0.241E-03 dE for cont linesearch -0.139E-04
 ZBRENT: extrapolating
 opt :   2.2028  next Energy=   -38.064228 (dE=-0.306E-03)
 bond charge predicted
       N       E                     dE             d eps       ncg     rms          rms(c)
DAV:   1    -0.380642430196E+02   -0.29744E-04   -0.25070E-02 10112   0.875E-01    0.573E-02
DAV:   2    -0.380642443228E+02   -0.13032E-05   -0.53694E-04 12088   0.232E-01    0.337E-02
DAV:   3    -0.380642313968E+02    0.12926E-04   -0.44123E-05 12748   0.102E-01    0.157E-02
DAV:   4    -0.380642278444E+02    0.35524E-05   -0.12253E-05 12288   0.691E-02    0.346E-03
DAV:   5    -0.380642281053E+02   -0.26093E-06   -0.40791E-06 10792   0.325E-02    0.179E-03
DAV:   6    -0.380642281616E+02   -0.56307E-07   -0.96830E-07 12324   0.149E-02    0.120E-03
DAV:   7    -0.380642281507E+02    0.10858E-07   -0.15010E-07 11616   0.861E-03    0.411E-04
DAV:   8    -0.380642281481E+02    0.26348E-08   -0.44326E-08  9168   0.317E-03
  24 F= -.38064228E+02 E0= -.38045342E+02  d E =-.305623E-03
 curvature:  -2.07 expect dE=-0.382E-03 dE for cont linesearch -0.602E-09
 trial: gam= 0.65140 g(F)=  0.105E-03 g(S)=  0.802E-04 ort = 0.390E-06 (trialstep = 0.783E+00)
 search vector abs. value=  0.407E-03
 bond charge predicted
       N       E                     dE             d eps       ncg     rms          rms(c)
DAV:   1    -0.380644595094E+02   -0.23136E-03   -0.44840E-02 10184   0.145E+00    0.141E-01
DAV:   2    -0.380643771658E+02    0.82344E-04   -0.31836E-03 11456   0.708E-01    0.716E-02
DAV:   3    -0.380643175653E+02    0.59601E-04   -0.26166E-04 13348   0.185E-01    0.355E-02
DAV:   4    -0.380642926940E+02    0.24871E-04   -0.53776E-05 13024   0.107E-01    0.677E-03
DAV:   5    -0.380642933949E+02   -0.70088E-06   -0.16930E-05 10684   0.488E-02    0.328E-03
DAV:   6    -0.380642935539E+02   -0.15897E-06   -0.26459E-06 12372   0.230E-02    0.218E-03
DAV:   7    -0.380642935754E+02   -0.21501E-07   -0.38889E-07 12264   0.189E-02    0.105E-03
DAV:   8    -0.380642936192E+02   -0.43861E-07   -0.15661E-07 12868   0.441E-03    0.312E-04
DAV:   9    -0.380642936238E+02   -0.45707E-08   -0.13257E-08  6180   0.212E-03
  25 F= -.38064294E+02 E0= -.38045367E+02  d E =-.654757E-04
 trial-energy change:   -0.000065  1 .order   -0.000066   -0.000145    0.000013
 step:   0.7175(harm=  0.7187)  dis= 0.00118  next Energy=   -38.064294 (dE=-0.660E-04)
 bond charge predicted
       N       E                     dE             d eps       ncg     rms          rms(c)
DAV:   1    -0.380642952529E+02   -0.16336E-05   -0.31886E-04 10184   0.122E-01    0.119E-02
DAV:   2    -0.380642946243E+02    0.62852E-06   -0.22639E-05 11424   0.596E-02    0.604E-03
DAV:   3    -0.380642943348E+02    0.28955E-06   -0.18574E-06 13392   0.158E-02    0.299E-03
DAV:   4    -0.380642942317E+02    0.10306E-06   -0.38951E-07 12956   0.914E-03    0.571E-04
DAV:   5    -0.380642942483E+02   -0.16599E-07   -0.12088E-07 10644   0.423E-03    0.276E-04
DAV:   6    -0.380642942482E+02    0.96861E-10   -0.17451E-08  6300   0.194E-03
  26 F= -.38064294E+02 E0= -.38045371E+02  d E =-.661001E-04
 curvature:  -0.79 expect dE=-0.561E-03 dE for cont linesearch -0.971E-09
 trial: gam= 3.84690 g(F)=  0.669E-03 g(S)=  0.417E-04 ort = 0.707E-06 (trialstep = 0.465E-01)
 search vector abs. value=  0.674E-02
 bond charge predicted
       N       E                     dE             d eps       ncg     rms          rms(c)
DAV:   1    -0.380643350126E+02   -0.40764E-04   -0.26744E-03 10068   0.323E-01    0.305E-02
DAV:   2    -0.380643307122E+02    0.43003E-05   -0.14041E-04 11520   0.149E-01    0.162E-02
DAV:   3    -0.380643274132E+02    0.32991E-05   -0.13978E-05 12896   0.431E-02    0.800E-03
DAV:   4    -0.380643261398E+02    0.12734E-05   -0.34143E-06 12284   0.299E-02    0.174E-03
DAV:   5    -0.380643261632E+02   -0.23413E-07   -0.96700E-07 10768   0.137E-02    0.935E-04
DAV:   6    -0.380643261678E+02   -0.46434E-08   -0.20012E-07 11260   0.645E-03    0.541E-04
DAV:   7    -0.380643261703E+02   -0.24775E-08   -0.27128E-08  7148   0.493E-03
  27 F= -.38064326E+02 E0= -.38045395E+02  d E =-.319221E-04
 ZBRENT: can't locate minimum, use default step
 trial-energy change:   -0.000032  1 .order   -0.000032   -0.000033   -0.000030
 step:   0.1861(harm=  0.5385)  dis= 0.00127  next Energy=   -38.064486 (dE=-0.192E-03)
 bond charge predicted
       N       E                     dE             d eps       ncg     rms          rms(c)
DAV:   1    -0.380644853717E+02   -0.15920E-03   -0.24084E-02 10068   0.969E-01    0.916E-02
DAV:   2    -0.380644452856E+02    0.40086E-04   -0.12644E-03 11520   0.448E-01    0.486E-02
DAV:   3    -0.380644172101E+02    0.28075E-04   -0.12611E-04 12932   0.129E-01    0.240E-02
DAV:   4    -0.380644062898E+02    0.10920E-04   -0.30353E-05 12248   0.865E-02    0.524E-03
DAV:   5    -0.380644066625E+02   -0.37264E-06   -0.88340E-06 10764   0.401E-02    0.283E-03
DAV:   6    -0.380644067318E+02   -0.69288E-07   -0.17255E-06 11872   0.196E-02    0.163E-03
DAV:   7    -0.380644067371E+02   -0.53160E-08   -0.25923E-07 11984   0.144E-02    0.775E-04
DAV:   8    -0.380644067560E+02   -0.18871E-07   -0.11186E-07 12508   0.398E-03    0.260E-04
DAV:   9    -0.380644067641E+02   -0.81241E-08   -0.12510E-08  6124   0.128E-03
  28 F= -.38064407E+02 E0= -.38045453E+02  d E =-.112516E-03
 curvature:  -1.24 expect dE=-0.442E-03 dE for cont linesearch -0.444E-04
 ZBRENT: increasing intervall
 opt :   0.4651  next Energy=   -38.064499 (dE=-0.205E-03)
 bond charge predicted
       N       E                     dE             d eps       ncg     rms          rms(c)
DAV:   1    -0.380648115651E+02   -0.40481E-03   -0.96327E-02 10064   0.194E+00    0.183E-01
DAV:   2    -0.380646510310E+02    0.16053E-03   -0.50615E-03 11512   0.896E-01    0.971E-02
DAV:   3    -0.380645405715E+02    0.11046E-03   -0.50444E-04 12940   0.258E-01    0.480E-02
DAV:   4    -0.380644974593E+02    0.43112E-04   -0.12156E-04 12252   0.176E-01    0.105E-02
DAV:   5    -0.380644990450E+02   -0.15857E-05   -0.34966E-05 10756   0.813E-02    0.563E-03
DAV:   6    -0.380644993690E+02   -0.32403E-06   -0.70246E-06 11856   0.390E-02    0.325E-03
DAV:   7    -0.380644993718E+02   -0.27858E-08   -0.10418E-06 12004   0.291E-02    0.155E-03
DAV:   8    -0.380644994231E+02   -0.51280E-07   -0.44587E-07 13316   0.789E-03    0.521E-04
DAV:   9    -0.380644994419E+02   -0.18792E-07   -0.53364E-08  9920   0.275E-03    0.324E-04
DAV:  10    -0.380644994587E+02   -0.16862E-07   -0.16505E-08  6668   0.100E-03    0.101E-04
DAV:  11    -0.380644994629E+02   -0.41291E-08   -0.24510E-09  5624   0.521E-04
  29 F= -.38064499E+02 E0= -.38045501E+02  d E =-.205215E-03
 curvature:  -2.58 expect dE=-0.303E-03 dE for cont linesearch -0.103E-04
 ZBRENT: extrapolating
 opt :   0.6047  next Energy=   -38.064511 (dE=-0.217E-03)
 bond charge predicted
       N       E                     dE             d eps       ncg     rms          rms(c)
DAV:   1    -0.380645885002E+02   -0.89041E-04   -0.24074E-02 10068   0.968E-01    0.915E-02
DAV:   2    -0.380645485445E+02    0.39956E-04   -0.12610E-03 11520   0.447E-01    0.485E-02
DAV:   3    -0.380645204929E+02    0.28052E-04   -0.12587E-04 12920   0.129E-01    0.240E-02
DAV:   4    -0.380645095925E+02    0.10900E-04   -0.30425E-05 12244   0.877E-02    0.523E-03
DAV:   5    -0.380645099578E+02   -0.36531E-06   -0.87708E-06 10776   0.408E-02    0.282E-03
DAV:   6    -0.380645100316E+02   -0.73765E-07   -0.17611E-06 11856   0.196E-02    0.163E-03
DAV:   7    -0.380645100374E+02   -0.58317E-08   -0.26372E-07 11988   0.145E-02    0.775E-04
DAV:   8    -0.380645100558E+02   -0.18374E-07   -0.11175E-07 12508   0.399E-03    0.261E-04
DAV:   9    -0.380645100643E+02   -0.85574E-08   -0.12399E-08  6128   0.133E-03
  30 F= -.38064510E+02 E0= -.38045490E+02  d E =-.215816E-03
 curvature:  -2.87 expect dE=-0.373E-03 dE for cont linesearch -0.999E-10
 trial: gam= 0.17369 g(F)=  0.763E-04 g(S)=  0.537E-04 ort =-0.484E-06 (trialstep = 0.158E+00)
 search vector abs. value=  0.333E-03
 bond charge predicted
       N       E                     dE             d eps       ncg     rms          rms(c)
DAV:   1    -0.380645350636E+02   -0.25008E-04   -0.15274E-03 10284   0.252E-01    0.242E-02
DAV:   2    -0.380645315959E+02    0.34677E-05   -0.90070E-05 11396   0.110E-01    0.112E-02
DAV:   3    -0.380645303278E+02    0.12681E-05   -0.73463E-06 13512   0.301E-02    0.564E-03
DAV:   4    -0.380645297883E+02    0.53952E-06   -0.12196E-06 13184   0.187E-02    0.143E-03
DAV:   5    -0.380645298241E+02   -0.35757E-07   -0.49426E-07 10644   0.868E-03    0.567E-04
DAV:   6    -0.380645298303E+02   -0.62382E-08   -0.83604E-08  9900   0.315E-03
  31 F= -.38064530E+02 E0= -.38045506E+02  d E =-.197660E-04
 ZBRENT: can't locate minimum, use default step
 trial-energy change:   -0.000020  1 .order   -0.000020   -0.000021   -0.000019
 step:   0.6326(harm=  1.8161)  dis= 0.00096  next Energy=   -38.064628 (dE=-0.118E-03)
 bond charge predicted
       N       E                     dE             d eps       ncg     rms          rms(c)
DAV:   1    -0.380646250024E+02   -0.95178E-04   -0.13743E-02 10280   0.756E-01    0.727E-02
DAV:   2    -0.380645940592E+02    0.30943E-04   -0.81025E-04 11388   0.329E-01    0.337E-02
DAV:   3    -0.380645816333E+02    0.12426E-04   -0.66269E-05 13508   0.908E-02    0.169E-02
DAV:   4    -0.380645763063E+02    0.53270E-05   -0.11041E-05 13144   0.564E-02    0.431E-03
DAV:   5    -0.380645764516E+02   -0.14526E-06   -0.44928E-06 10660   0.263E-02    0.171E-03
DAV:   6    -0.380645765017E+02   -0.50086E-07   -0.76626E-07 12016   0.955E-03    0.125E-03
DAV:   7    -0.380645764862E+02    0.15518E-07   -0.91224E-08  9748   0.608E-03    0.636E-04
DAV:   8    -0.380645764719E+02    0.14300E-07   -0.27939E-08  8372   0.248E-03    0.178E-04
DAV:   9    -0.380645764716E+02    0.20691E-09   -0.98873E-09  5840   0.101E-03
  32 F= -.38064576E+02 E0= -.38045541E+02  d E =-.664073E-04
 curvature:  -1.14 expect dE=-0.131E-03 dE for cont linesearch -0.261E-04
 ZBRENT: increasing intervall
 opt :   1.5815  next Energy=   -38.064630 (dE=-0.120E-03)
 bond charge predicted
       N       E                     dE             d eps       ncg     rms          rms(c)
DAV:   1    -0.380648238100E+02   -0.24734E-03   -0.54955E-02 10280   0.151E+00    0.145E-01
DAV:   2    -0.380646998595E+02    0.12395E-03   -0.32445E-03 11388   0.658E-01    0.674E-02
DAV:   3    -0.380646491876E+02    0.50672E-04   -0.26500E-04 13460   0.181E-01    0.338E-02
DAV:   4    -0.380646273458E+02    0.21842E-04   -0.43763E-05 13136   0.112E-01    0.858E-03
DAV:   5    -0.380646277894E+02   -0.44361E-06   -0.18190E-05 10664   0.526E-02    0.344E-03
DAV:   6    -0.380646279698E+02   -0.18041E-06   -0.29961E-06 11996   0.212E-02    0.249E-03
DAV:   7    -0.380646279408E+02    0.28976E-07   -0.40340E-07 11540   0.128E-02    0.127E-03
DAV:   8    -0.380646279204E+02    0.20399E-07   -0.13273E-07 13752   0.569E-03    0.370E-04
DAV:   9    -0.380646279215E+02   -0.10714E-08   -0.26640E-08  8020   0.225E-03
  33 F= -.38064628E+02 E0= -.38045571E+02  d E =-.117857E-03
 curvature:  -2.32 expect dE=-0.826E-03 dE for cont linesearch -0.352E-05
 trial: gam= 2.56219 g(F)=  0.329E-03 g(S)=  0.270E-04 ort = 0.225E-04 (trialstep = 0.555E-01)
 search vector abs. value=  0.266E-02
 bond charge predicted
       N       E                     dE             d eps       ncg     rms          rms(c)
DAV:   1    -0.380646506303E+02   -0.22710E-04   -0.15593E-03 10200   0.236E-01    0.200E-02
DAV:   2    -0.380646493494E+02    0.12809E-05   -0.66234E-05 11416   0.865E-02    0.107E-02
DAV:   3    -0.380646480838E+02    0.12655E-05   -0.60178E-06 12892   0.314E-02    0.539E-03
DAV:   4    -0.380646476135E+02    0.47035E-06   -0.14334E-06 12132   0.230E-02    0.142E-03
DAV:   5    -0.380646476542E+02   -0.40715E-07   -0.45716E-07 10892   0.111E-02    0.585E-04
DAV:   6    -0.380646476672E+02   -0.13021E-07   -0.11889E-07 10072   0.496E-03    0.417E-04
DAV:   7    -0.380646476653E+02    0.19522E-08   -0.14381E-08  5892   0.311E-03
  34 F= -.38064648E+02 E0= -.38045585E+02  d E =-.197438E-04
 trial-energy change:   -0.000020  1 .order   -0.000020   -0.000023   -0.000017
 step:   0.2128(harm=  0.2128)  dis= 0.00093  next Energy=   -38.064672 (dE=-0.440E-04)
 bond charge predicted
       N       E                     dE             d eps       ncg     rms          rms(c)
DAV:   1    -0.380646961185E+02   -0.48451E-04   -0.12542E-02 10196   0.669E-01    0.568E-02
DAV:   2    -0.380646864958E+02    0.96227E-05   -0.53421E-04 11408   0.246E-01    0.303E-02
DAV:   3    -0.380646759086E+02    0.10587E-04   -0.48483E-05 12704   0.905E-02    0.153E-02
DAV:   4    -0.380646721490E+02    0.37595E-05   -0.11850E-05 12108   0.682E-02    0.405E-03
DAV:   5    -0.380646723632E+02   -0.21416E-06   -0.38074E-06 11208   0.329E-02    0.165E-03
DAV:   6    -0.380646724507E+02   -0.87539E-07   -0.10217E-06 11860   0.140E-02    0.118E-03
DAV:   7    -0.380646724476E+02    0.31041E-08   -0.12451E-07 11068   0.862E-03    0.457E-04
DAV:   8    -0.380646724435E+02    0.41559E-08   -0.38074E-08  8384   0.255E-03
  35 F= -.38064672E+02 E0= -.38045593E+02  d E =-.445220E-04
 curvature:  -0.68 expect dE=-0.758E-04 dE for cont linesearch -0.400E-07
 trial: gam= 0.47941 g(F)=  0.897E-04 g(S)=  0.211E-04 ort = 0.125E-04 (trialstep = 0.870E-01)
 search vector abs. value=  0.733E-03
 bond charge predicted
       N       E                     dE             d eps       ncg     rms          rms(c)
DAV:   1    -0.380646845156E+02   -0.12068E-04   -0.10416E-03 10208   0.197E-01    0.170E-02
DAV:   2    -0.380646832607E+02    0.12548E-05   -0.46027E-05 11272   0.773E-02    0.859E-03
DAV:   3    -0.380646826189E+02    0.64179E-06   -0.42839E-06 12848   0.278E-02    0.423E-03
DAV:   4    -0.380646823560E+02    0.26294E-06   -0.98149E-07 12720   0.217E-02    0.107E-03
DAV:   5    -0.380646823974E+02   -0.41434E-07   -0.38722E-07 12088   0.965E-03    0.430E-04
DAV:   6    -0.380646824093E+02   -0.11903E-07   -0.95480E-08  9956   0.322E-03    0.279E-04
DAV:   7    -0.380646824075E+02    0.18613E-08   -0.72667E-09  5716   0.229E-03
  36 F= -.38064682E+02 E0= -.38045599E+02  d E =-.996399E-05
 ZBRENT: can't locate minimum, use default step
 trial-energy change:   -0.000010  1 .order   -0.000010   -0.000010   -0.000010
 step:   0.3479(harm=  1.7041)  dis= 0.00086  next Energy=   -38.064772 (dE=-0.995E-04)
 bond charge predicted
       N       E                     dE             d eps       ncg     rms          rms(c)
DAV:   1    -0.380647290216E+02   -0.46612E-04   -0.93712E-03 10208   0.590E-01    0.511E-02
DAV:   2    -0.380647181852E+02    0.10836E-04   -0.41352E-04 11256   0.231E-01    0.258E-02
DAV:   3    -0.380647116669E+02    0.65182E-05   -0.38408E-05 12848   0.828E-02    0.127E-02
DAV:   4    -0.380647090832E+02    0.25837E-05   -0.88239E-06 12720   0.645E-02    0.319E-03
DAV:   5    -0.380647092815E+02   -0.19824E-06   -0.34643E-06 12036   0.287E-02    0.128E-03
DAV:   6    -0.380647093578E+02   -0.76326E-07   -0.86738E-07 12708   0.945E-03    0.827E-04
DAV:   7    -0.380647093516E+02    0.61709E-08   -0.63017E-08  9928   0.640E-03
  37 F= -.38064709E+02 E0= -.38045615E+02  d E =-.369082E-04
 curvature:  -1.59 expect dE=-0.157E-03 dE for cont linesearch -0.185E-04
 ZBRENT: increasing intervall
 opt :   0.8697  next Energy=   -38.064748 (dE=-0.756E-04)
 bond charge predicted
       N       E                     dE             d eps       ncg     rms          rms(c)
DAV:   1    -0.380648295535E+02   -0.12020E-03   -0.37476E-02 10204   0.118E+00    0.102E-01
DAV:   2    -0.380647863969E+02    0.43157E-04   -0.16552E-03 11256   0.463E-01    0.517E-02
DAV:   3    -0.380647596162E+02    0.26781E-04   -0.15379E-04 12800   0.166E-01    0.254E-02
DAV:   4    -0.380647490875E+02    0.10529E-04   -0.35743E-05 12712   0.130E-01    0.639E-03
DAV:   5    -0.380647497172E+02   -0.62966E-06   -0.14042E-05 12076   0.579E-02    0.257E-03
DAV:   6    -0.380647500007E+02   -0.28351E-06   -0.35298E-06 12756   0.189E-02    0.166E-03
DAV:   7    -0.380647499897E+02    0.10976E-07   -0.26185E-07 13080   0.127E-02    0.833E-04
DAV:   8    -0.380647499871E+02    0.25771E-08   -0.89231E-08 11420   0.317E-03
  38 F= -.38064750E+02 E0= -.38045633E+02  d E =-.775437E-04
 curvature:  -3.32 expect dE=-0.317E-03 dE for cont linesearch -0.172E-04
 ZBRENT: increasing intervall
 opt :   1.9133  next Energy=   -38.064782 (dE=-0.110E-03)
 bond charge predicted
       N       E                     dE             d eps       ncg     rms          rms(c)
DAV:   1    -0.380650941827E+02   -0.34419E-03   -0.14980E-01 10200   0.236E+00    0.205E-01
DAV:   2    -0.380649218552E+02    0.17233E-03   -0.66277E-03 11256   0.925E-01    0.103E-01
DAV:   3    -0.380648132587E+02    0.10860E-03   -0.61494E-04 12788   0.333E-01    0.509E-02
DAV:   4    -0.380647706417E+02    0.42617E-04   -0.14356E-04 12676   0.259E-01    0.127E-02
DAV:   5    -0.380647728447E+02   -0.22030E-05   -0.56465E-05 12076   0.116E-01    0.515E-03
DAV:   6    -0.380647739278E+02   -0.10831E-05   -0.14182E-05 12820   0.375E-02    0.331E-03
DAV:   7    -0.380647739035E+02    0.24313E-07   -0.10013E-06 13488   0.248E-02    0.166E-03
DAV:   8    -0.380647739142E+02   -0.10713E-07   -0.33604E-07 12772   0.635E-03    0.629E-04
DAV:   9    -0.380647739137E+02    0.55616E-09   -0.57421E-08 10820   0.496E-03
  39 F= -.38064774E+02 E0= -.38045612E+02  d E =-.101470E-03
 curvature:  -6.20 expect dE=-0.823E-03 dE for cont linesearch -0.215E-06
 trial: gam= 0.56099 g(F)=  0.120E-03 g(S)=  0.127E-04 ort =-0.504E-05 (trialstep = 0.452E+00)
 search vector abs. value=  0.358E-03
 bond charge predicted
       N       E                     dE             d eps       ncg     rms          rms(c)
DAV:   1    -0.380647657634E+02    0.81508E-05   -0.14661E-02 10132   0.696E-01    0.428E-02
DAV:   2    -0.380647956537E+02   -0.29890E-04   -0.55311E-04 11328   0.179E-01    0.280E-02
DAV:   3    -0.380647864593E+02    0.91944E-05   -0.37870E-05 14000   0.607E-02    0.164E-02
DAV:   4    -0.380647830913E+02    0.33680E-05   -0.14614E-05 10964   0.620E-02    0.456E-03
DAV:   5    -0.380647831691E+02   -0.77829E-07   -0.35670E-06 11712   0.323E-02    0.237E-03
DAV:   6    -0.380647831890E+02   -0.19910E-07   -0.90411E-07 11140   0.145E-02    0.124E-03
DAV:   7    -0.380647831837E+02    0.52951E-08   -0.14387E-07 11736   0.103E-02    0.575E-04
DAV:   8    -0.380647831883E+02   -0.46166E-08   -0.52737E-08  9140   0.292E-03
  40 F= -.38064783E+02 E0= -.38045611E+02  d E =-.927466E-05
 trial-energy change:   -0.000009  1 .order   -0.000008   -0.000059    0.000043
 step:   0.2699(harm=  0.2623)  dis= 0.00040  next Energy=   -38.064792 (dE=-0.178E-04)
 bond charge predicted
       N       E                     dE             d eps       ncg     rms          rms(c)
DAV:   1    -0.380647892162E+02   -0.60325E-05   -0.23836E-03 10132   0.281E-01    0.173E-02
DAV:   2    -0.380647937865E+02   -0.45703E-05   -0.89938E-05 11328   0.722E-02    0.113E-02
DAV:   3    -0.380647922622E+02    0.15243E-05   -0.61016E-06 13808   0.250E-02    0.663E-03
DAV:   4    -0.380647915783E+02    0.68395E-06   -0.24140E-06 10960   0.257E-02    0.184E-03
DAV:   5    -0.380647916078E+02   -0.29554E-07   -0.58858E-07 11684   0.135E-02    0.949E-04
DAV:   6    -0.380647916234E+02   -0.15552E-07   -0.15615E-07 10864   0.592E-03    0.501E-04
DAV:   7    -0.380647916256E+02   -0.22169E-08   -0.22432E-08  6428   0.422E-03
  41 F= -.38064792E+02 E0= -.38045624E+02  d E =-.177119E-04
 curvature:  -0.36 expect dE=-0.495E-04 dE for cont linesearch -0.309E-08
 trial: gam= 1.01932 g(F)=  0.691E-04 g(S)=  0.681E-04 ort =-0.175E-05 (trialstep = 0.294E+00)
 search vector abs. value=  0.505E-03
 bond charge predicted
       N       E                     dE             d eps       ncg     rms          rms(c)
DAV:   1    -0.380648566000E+02   -0.64977E-04   -0.81263E-03 10324   0.621E-01    0.611E-02
DAV:   2    -0.380648370286E+02    0.19571E-04   -0.57925E-04 11504   0.312E-01    0.292E-02
DAV:   3    -0.380648281916E+02    0.88370E-05   -0.50267E-05 13144   0.825E-02    0.145E-02
DAV:   4    -0.380648238290E+02    0.43625E-05   -0.83482E-06 12712   0.526E-02    0.345E-03
DAV:   5    -0.380648238132E+02    0.15866E-07   -0.32878E-06 10696   0.234E-02    0.135E-03
DAV:   6    -0.380648238417E+02   -0.28560E-07   -0.57182E-07 11840   0.112E-02    0.876E-04
DAV:   7    -0.380648238548E+02   -0.13114E-07   -0.75251E-08 10032   0.666E-03    0.469E-04
DAV:   8    -0.380648238702E+02   -0.15387E-07   -0.27890E-08  7056   0.217E-03    0.128E-04
DAV:   9    -0.380648238754E+02   -0.51959E-08   -0.70997E-09  5556   0.930E-04
  42 F= -.38064824E+02 E0= -.38045639E+02  d E =-.322498E-04
 trial-energy change:   -0.000032  1 .order   -0.000032   -0.000040   -0.000025
 step:   0.7703(harm=  0.7703)  dis= 0.00128  next Energy=   -38.064844 (dE=-0.521E-04)
 bond charge predicted
       N       E                     dE             d eps       ncg     rms          rms(c)
DAV:   1    -0.380649290513E+02   -0.10518E-03   -0.21249E-02 10320   0.100E+00    0.988E-02
DAV:   2    -0.380648776886E+02    0.51363E-04   -0.15136E-03 11496   0.504E-01    0.472E-02
DAV:   3    -0.380648552270E+02    0.22462E-04   -0.13129E-04 13112   0.133E-01    0.234E-02
DAV:   4    -0.380648441210E+02    0.11106E-04   -0.21827E-05 12720   0.843E-02    0.557E-03
DAV:   5    -0.380648441770E+02   -0.56063E-07   -0.86770E-06 10696   0.380E-02    0.220E-03
DAV:   6    -0.380648442532E+02   -0.76195E-07   -0.14824E-06 11856   0.183E-02    0.142E-03
DAV:   7    -0.380648442751E+02   -0.21912E-07   -0.20392E-07 11880   0.105E-02    0.751E-04
DAV:   8    -0.380648443012E+02   -0.26104E-07   -0.78178E-08 11124   0.370E-03    0.226E-04
DAV:   9    -0.380648443091E+02   -0.78826E-08   -0.11648E-08  5920   0.157E-03
  43 F= -.38064844E+02 E0= -.38045631E+02  d E =-.526835E-04
 curvature:  -1.44 expect dE=-0.570E-04 dE for cont linesearch -0.561E-08
 trial: gam= 0.20829 g(F)=  0.262E-04 g(S)=  0.134E-04 ort = 0.140E-05 (trialstep = 0.390E+00)
 search vector abs. value=  0.621E-04
 bond charge predicted
       N       E                     dE             d eps       ncg     rms          rms(c)
DAV:   1    -0.380648609637E+02   -0.16662E-04   -0.18114E-03 10000   0.243E-01    0.209E-02
DAV:   2    -0.380648600674E+02    0.89629E-06   -0.65018E-05 11792   0.110E-01    0.126E-02
DAV:   3    -0.380648576342E+02    0.24332E-05   -0.93287E-06 11884   0.782E-02    0.624E-03
DAV:   4    -0.380648570226E+02    0.61165E-06   -0.27901E-06 12564   0.373E-02    0.124E-03
DAV:   5    -0.380648571069E+02   -0.84279E-07   -0.11263E-06 11228   0.781E-03    0.666E-04
DAV:   6    -0.380648571060E+02    0.82446E-09   -0.68561E-08 10436   0.535E-03
  44 F= -.38064857E+02 E0= -.38045636E+02  d E =-.127969E-04
 trial-energy change:   -0.000013  1 .order   -0.000013   -0.000016   -0.000010
 step:   1.2725(harm=  1.1186)  dis= 0.00074  next Energy=   -38.064868 (dE=-0.237E-04)
 bond charge predicted
       N       E                     dE             d eps       ncg     rms          rms(c)
DAV:   1    -0.380648859413E+02   -0.28834E-04   -0.93116E-03  9992   0.550E-01    0.475E-02
DAV:   2    -0.380648813659E+02    0.45754E-05   -0.33420E-04 11792   0.250E-01    0.287E-02
DAV:   3    -0.380648691951E+02    0.12171E-04   -0.48244E-05 11940   0.179E-01    0.141E-02
DAV:   4    -0.380648662393E+02    0.29557E-05   -0.14443E-05 12512   0.847E-02    0.280E-03
DAV:   5    -0.380648667033E+02   -0.46394E-06   -0.58857E-06 11328   0.177E-02    0.152E-03
DAV:   6    -0.380648666962E+02    0.71082E-08   -0.33777E-07 13256   0.117E-02    0.997E-04
DAV:   7    -0.380648667034E+02   -0.72091E-08   -0.11972E-07 11680   0.447E-03    0.372E-04
DAV:   8    -0.380648666996E+02    0.37353E-08   -0.16351E-08  6100   0.201E-03
  45 F= -.38064867E+02 E0= -.38045626E+02  d E =-.223905E-04
 curvature:  -0.83 expect dE=-0.151E-03 dE for cont linesearch -0.197E-06
 trial: gam= 4.68002 g(F)=  0.153E-03 g(S)=  0.285E-04 ort =-0.384E-05 (trialstep = 0.234E-01)
 search vector abs. value=  0.151E-02
 bond charge predicted
       N       E                     dE             d eps       ncg     rms          rms(c)
DAV:   1    -0.380648705568E+02   -0.38534E-05   -0.16205E-04 10116   0.744E-02    0.626E-03
DAV:   2    -0.380648704610E+02    0.95783E-07   -0.66367E-06 11456   0.334E-02    0.337E-03
DAV:   3    -0.380648703377E+02    0.12333E-06   -0.91635E-07 11724   0.197E-02    0.194E-03
DAV:   4    -0.380648702928E+02    0.44927E-07   -0.22053E-07 11996   0.116E-02    0.558E-04
DAV:   5    -0.380648702977E+02   -0.49313E-08   -0.10023E-07 10620   0.358E-03    0.231E-04
DAV:   6    -0.380648702965E+02    0.11710E-08   -0.15236E-08  6152   0.180E-03
  46 F= -.38064870E+02 E0= -.38045628E+02  d E =-.359688E-05
 ZBRENT: can't locate minimum, use default step
 trial-energy change:   -0.000004  1 .order   -0.000004   -0.000004   -0.000003
 step:   0.0934(harm=  0.1813)  dis= 0.00027  next Energy=   -38.064881 (dE=-0.148E-04)
 bond charge predicted
       N       E                     dE             d eps       ncg     rms          rms(c)
DAV:   1    -0.380648809039E+02   -0.10606E-04   -0.14599E-03 10100   0.224E-01    0.188E-02
DAV:   2    -0.380648800417E+02    0.86218E-06   -0.60172E-05 11452   0.101E-01    0.102E-02
DAV:   3    -0.380648788931E+02    0.11486E-05   -0.82321E-06 11712   0.599E-02    0.581E-03
DAV:   4    -0.380648784030E+02    0.49013E-06   -0.19904E-06 12008   0.349E-02    0.163E-03
DAV:   5    -0.380648784442E+02   -0.41226E-07   -0.90642E-07 10800   0.106E-02    0.687E-04
DAV:   6    -0.380648784465E+02   -0.22533E-08   -0.14750E-07 11092   0.529E-03    0.406E-04
DAV:   7    -0.380648784385E+02    0.80004E-08   -0.25234E-08  7752   0.365E-03
  47 F= -.38064878E+02 E0= -.38045630E+02  d E =-.117388E-04
 curvature:  -0.58 expect dE=-0.427E-04 dE for cont linesearch -0.283E-05
 ZBRENT: increasing intervall
 opt :   0.2336  next Energy=   -38.064883 (dE=-0.159E-04)
 bond charge predicted
       N       E                     dE             d eps       ncg     rms          rms(c)
DAV:   1    -0.380648929858E+02   -0.14539E-04   -0.58390E-03 10100   0.447E-01    0.376E-02
DAV:   2    -0.380648893649E+02    0.36209E-05   -0.24012E-04 11468   0.199E-01    0.203E-02
DAV:   3    -0.380648847693E+02    0.45956E-05   -0.32566E-05 11728   0.118E-01    0.116E-02
DAV:   4    -0.380648827327E+02    0.20366E-05   -0.78473E-06 12048   0.699E-02    0.328E-03
DAV:   5    -0.380648828859E+02   -0.15320E-06   -0.35889E-06 10840   0.211E-02    0.137E-03
DAV:   6    -0.380648829042E+02   -0.18346E-07   -0.58792E-07 12444   0.104E-02    0.813E-04
DAV:   7    -0.380648828886E+02    0.15669E-07   -0.10876E-07 12476   0.731E-03    0.418E-04
DAV:   8    -0.380648828832E+02    0.53328E-08   -0.35916E-08  7716   0.414E-03
  48 F= -.38064883E+02 E0= -.38045624E+02  d E =-.161836E-04
 curvature:  -0.85 expect dE=-0.194E-04 dE for cont linesearch -0.393E-06
 ZBRENT: bracketing found
 ZBRENT: interpolating
 opt :   0.2006  next Energy=   -38.064883 (dE=-0.166E-04)
 bond charge predicted
       N       E                     dE             d eps       ncg     rms          rms(c)
DAV:   1    -0.380648838651E+02   -0.97652E-06   -0.32360E-04 10092   0.105E-01    0.887E-03
DAV:   2    -0.380648836427E+02    0.22236E-06   -0.13315E-05 11476   0.467E-02    0.479E-03
DAV:   3    -0.380648833801E+02    0.26261E-06   -0.17700E-06 11684   0.272E-02    0.274E-03
DAV:   4    -0.380648832411E+02    0.13906E-06   -0.42735E-07 12104   0.164E-02    0.756E-04
DAV:   5    -0.380648832481E+02   -0.70718E-08   -0.19179E-07 10824   0.491E-03    0.317E-04
DAV:   6    -0.380648832524E+02   -0.42764E-08   -0.29528E-08  7612   0.234E-03
  49 F= -.38064883E+02 E0= -.38045627E+02  d E =-.165528E-04
 curvature:  -0.94 expect dE=-0.217E-04 dE for cont linesearch -0.964E-08
 trial: gam=-0.07022 g(F)=  0.170E-04 g(S)=  0.603E-05 ort = 0.393E-05 (trialstep = 0.588E-01)
 search vector abs. value=  0.299E-04
 bond charge predicted
       N       E                     dE             d eps       ncg     rms          rms(c)
DAV:   1    -0.380648845067E+02   -0.12585E-05   -0.19880E-05 10124   0.268E-02    0.223E-03
DAV:   2    -0.380648845511E+02   -0.44472E-07   -0.11407E-06 10932   0.130E-02    0.141E-03
DAV:   3    -0.380648845409E+02    0.10208E-07   -0.14106E-07 12576   0.960E-03    0.700E-04
DAV:   4    -0.380648845437E+02   -0.27603E-08   -0.40695E-08  9016   0.462E-03
  50 F= -.38064885E+02 E0= -.38045628E+02  d E =-.129128E-05
 ZBRENT: can't locate minimum, use default step
 trial-energy change:   -0.000001  1 .order   -0.000001   -0.000001   -0.000001
 step:   0.2352(harm=  0.4776)  dis= 0.00015  next Energy=   -38.064889 (dE=-0.544E-05)
 bond charge predicted
       N       E                     dE             d eps       ncg     rms          rms(c)
DAV:   1    -0.380648872117E+02   -0.26708E-05   -0.17772E-04 10120   0.789E-02    0.660E-03
DAV:   2    -0.380648875179E+02   -0.30616E-06   -0.98433E-06 11032   0.357E-02    0.419E-03
DAV:   3    -0.380648873314E+02    0.18648E-06   -0.11646E-06 12768   0.261E-02    0.204E-03
DAV:   4    -0.380648873023E+02    0.29067E-07   -0.34781E-07 12036   0.137E-02    0.508E-04
DAV:   5    -0.380648873176E+02   -0.15289E-07   -0.15764E-07 11984   0.307E-03    0.258E-04
DAV:   6    -0.380648873174E+02    0.25784E-09   -0.72478E-09  5864   0.156E-03
  51 F= -.38064887E+02 E0= -.38045632E+02  d E =-.406496E-05
 curvature:  -0.21 expect dE=-0.240E-05 dE for cont linesearch -0.740E-06
 ZBRENT: increasing intervall
 opt :   0.5880  next Energy=   -38.064888 (dE=-0.428E-05)
 bond charge predicted
       N       E                     dE             d eps       ncg     rms          rms(c)
DAV:   1    -0.380648877866E+02   -0.46899E-06   -0.71318E-04 10116   0.158E-01    0.132E-02
DAV:   2    -0.380648889431E+02   -0.11564E-05   -0.39362E-05 11024   0.706E-02    0.841E-03
DAV:   3    -0.380648880563E+02    0.88673E-06   -0.44622E-06 12716   0.510E-02    0.404E-03
DAV:   4    -0.380648878918E+02    0.16450E-06   -0.13748E-06 11940   0.270E-02    0.982E-04
DAV:   5    -0.380648879439E+02   -0.52062E-07   -0.60045E-07 11656   0.616E-03    0.514E-04
DAV:   6    -0.380648879431E+02    0.75033E-09   -0.39055E-08  7708   0.352E-03
  52 F= -.38064888E+02 E0= -.38045635E+02  d E =-.469074E-05
 curvature:  -0.06 expect dE=-0.283E-05 dE for cont linesearch -0.152E-06
 ZBRENT: bracketing found
 ZBRENT: interpolating
 opt :   0.4279  next Energy=   -38.064889 (dE=-0.538E-05)
 bond charge predicted
       N       E                     dE             d eps       ncg     rms          rms(c)
DAV:   1    -0.380648885799E+02   -0.63603E-06   -0.14534E-04 10116   0.714E-02    0.595E-03
DAV:   2    -0.380648887748E+02   -0.19483E-06   -0.79684E-06 11040   0.316E-02    0.378E-03
DAV:   3    -0.380648885312E+02    0.24360E-06   -0.91509E-07 12824   0.227E-02    0.182E-03
DAV:   4    -0.380648884650E+02    0.66144E-07   -0.27230E-07 11992   0.122E-02    0.471E-04
DAV:   5    -0.380648884707E+02   -0.56962E-08   -0.11902E-07 11288   0.275E-03    0.230E-04
DAV:   6    -0.380648884704E+02    0.33151E-09   -0.74181E-09  5552   0.156E-03
  53 F= -.38064888E+02 E0= -.38045634E+02  d E =-.521797E-05
 curvature:  -0.28 expect dE=-0.639E-05 dE for cont linesearch -0.478E-08
 trial: gam= 0.96599 g(F)=  0.202E-04 g(S)=  0.258E-05 ort = 0.715E-06 (trialstep = 0.761E-01)
 search vector abs. value=  0.521E-04
 bond charge predicted
       N       E                     dE             d eps       ncg     rms          rms(c)
DAV:   1    -0.380648899342E+02   -0.14635E-05   -0.58573E-05 10172   0.467E-02    0.341E-03
DAV:   2    -0.380648900314E+02   -0.97141E-07   -0.33828E-06 11264   0.183E-02    0.183E-03
DAV:   3    -0.380648899877E+02    0.43708E-07   -0.32251E-07 12512   0.820E-03    0.111E-03
DAV:   4    -0.380648899534E+02    0.34276E-07   -0.73887E-08 11264   0.685E-03    0.362E-04
DAV:   5    -0.380648899523E+02    0.10905E-08   -0.28576E-08  7484   0.294E-03
  54 F= -.38064890E+02 E0= -.38045635E+02  d E =-.148191E-05
 trial-energy change:   -0.000001  1 .order   -0.000002   -0.000002   -0.000001
 step:   0.2522(harm=  0.2522)  dis= 0.00023  next Energy=   -38.064891 (dE=-0.297E-05)
 bond charge predicted
       N       E                     dE             d eps       ncg     rms          rms(c)
DAV:   1    -0.380648912031E+02   -0.12497E-05   -0.31497E-04 10176   0.108E-01    0.794E-03
DAV:   2    -0.380648918108E+02   -0.60768E-06   -0.18336E-05 11280   0.424E-02    0.425E-03
DAV:   3    -0.380648916136E+02    0.19717E-06   -0.17111E-06 12488   0.188E-02    0.257E-03
DAV:   4    -0.380648914729E+02    0.14070E-06   -0.41312E-07 13000   0.160E-02    0.798E-04
DAV:   5    -0.380648914750E+02   -0.21419E-08   -0.16160E-07 11948   0.694E-03    0.303E-04
DAV:   6    -0.380648914816E+02   -0.65406E-08   -0.40341E-08  8272   0.223E-03
  55 F= -.38064891E+02 E0= -.38045635E+02  d E =-.301118E-05
 curvature:  -0.28 expect dE=-0.125E-05 dE for cont linesearch -0.590E-08
 trial: gam= 0.16821 g(F)=  0.293E-05 g(S)=  0.155E-05 ort = 0.105E-05 (trialstep = 0.111E+00)
 search vector abs. value=  0.631E-05
 bond charge predicted
       N       E                     dE             d eps       ncg     rms          rms(c)
DAV:   1    -0.380648920198E+02   -0.54478E-06   -0.14015E-05 10312   0.246E-02    0.237E-03
DAV:   2    -0.380648919866E+02    0.33212E-07   -0.84876E-07 11280   0.116E-02    0.124E-03
DAV:   3    -0.380648919899E+02   -0.32819E-08   -0.73807E-08 11520   0.405E-03
  56 F= -.38064892E+02 E0= -.38045635E+02  d E =-.508313E-06
 ZBRENT: can't locate minimum, use default step
 trial-energy change:   -0.000001  1 .order   -0.000001   -0.000001   -0.000001
 step:   0.4454(harm=  3.7738)  dis= 0.00009  next Energy=   -38.064900 (dE=-0.878E-05)
 bond charge predicted
       N       E                     dE             d eps       ncg     rms          rms(c)
DAV:   1    -0.380648937823E+02   -0.17957E-05   -0.12551E-04 10300   0.725E-02    0.716E-03
DAV:   2    -0.380648934563E+02    0.32599E-06   -0.72433E-06 11280   0.323E-02    0.370E-03
DAV:   3    -0.380648933684E+02    0.87927E-07   -0.60501E-07 13588   0.100E-02    0.179E-03
DAV:   4    -0.380648933413E+02    0.27074E-07   -0.13683E-07 12340   0.658E-03    0.378E-04
DAV:   5    -0.380648933504E+02   -0.90572E-08   -0.45574E-08  9968   0.336E-03
  57 F= -.38064893E+02 E0= -.38045635E+02  d E =-.186881E-05
 curvature:  -0.45 expect dE=-0.166E-05 dE for cont linesearch -0.845E-06
 ZBRENT: increasing intervall
 opt :   1.1136  next Energy=   -38.064895 (dE=-0.347E-05)
 bond charge predicted
       N       E                     dE             d eps       ncg     rms          rms(c)
DAV:   1    -0.380648970099E+02   -0.36686E-05   -0.50204E-04 10288   0.146E-01    0.142E-02
DAV:   2    -0.380648958551E+02    0.11548E-05   -0.30043E-05 11272   0.663E-02    0.732E-03
DAV:   3    -0.380648954160E+02    0.43914E-06   -0.25435E-06 13812   0.193E-02    0.354E-03
DAV:   4    -0.380648952450E+02    0.17091E-06   -0.43267E-07 13104   0.123E-02    0.776E-04
DAV:   5    -0.380648952652E+02   -0.20138E-07   -0.17319E-07 10728   0.574E-03    0.297E-04
DAV:   6    -0.380648952673E+02   -0.21123E-08   -0.33863E-08  9332   0.260E-03
  58 F= -.38064895E+02 E0= -.38045634E+02  d E =-.378574E-05
 curvature:  -0.85 expect dE=-0.764E-05 dE for cont linesearch -0.521E-06
 ZBRENT: increasing intervall
 opt :   2.4499  next Energy=   -38.064896 (dE=-0.443E-05)
 bond charge predicted
       N       E                     dE             d eps       ncg     rms          rms(c)
DAV:   1    -0.380649032506E+02   -0.79855E-05   -0.20073E-03 10288   0.292E-01    0.285E-02
DAV:   2    -0.380648986700E+02    0.45806E-05   -0.11991E-04 11264   0.133E-01    0.146E-02
DAV:   3    -0.380648966851E+02    0.19849E-05   -0.10127E-05 13844   0.387E-02    0.709E-03
DAV:   4    -0.380648958827E+02    0.80238E-06   -0.17329E-06 13248   0.238E-02    0.157E-03
DAV:   5    -0.380648959323E+02   -0.49619E-07   -0.68617E-07 10744   0.113E-02    0.598E-04
DAV:   6    -0.380648959414E+02   -0.90581E-08   -0.13060E-07 10700   0.509E-03    0.442E-04
DAV:   7    -0.380648959346E+02    0.67353E-08   -0.14519E-08  5980   0.307E-03
  59 F= -.38064896E+02 E0= -.38045629E+02  d E =-.445308E-05
 curvature:  -1.04 expect dE=-0.430E-04 dE for cont linesearch -0.240E-06
 ZBRENT: bracketing found
 ZBRENT: interpolating
 opt :   1.9431  next Energy=   -38.064896 (dE=-0.476E-05)
 bond charge predicted
       N       E                     dE             d eps       ncg     rms          rms(c)
DAV:   1    -0.380648973701E+02   -0.14287E-05   -0.28819E-04 10284   0.111E-01    0.108E-02
DAV:   2    -0.380648967505E+02    0.61963E-06   -0.17342E-05 11248   0.503E-02    0.556E-03
DAV:   3    -0.380648963518E+02    0.39866E-06   -0.14487E-06 13884   0.145E-02    0.269E-03
DAV:   4    -0.380648961698E+02    0.18203E-06   -0.24476E-07 13492   0.855E-03    0.592E-04
DAV:   5    -0.380648961605E+02    0.92441E-08   -0.98339E-08 10696   0.414E-03
  60 F= -.38064896E+02 E0= -.38045631E+02  d E =-.467896E-05
 curvature:  -1.33 expect dE=-0.336E-04 dE for cont linesearch -0.782E-08
 trial: gam= 5.70317 g(F)=  0.189E-04 g(S)=  0.640E-05 ort = 0.193E-06 (trialstep = 0.130E-01)
 search vector abs. value=  0.233E-03
 bond charge predicted
       N       E                     dE             d eps       ncg     rms          rms(c)
DAV:   1    -0.380648964971E+02   -0.32733E-06   -0.71019E-06 10220   0.161E-02    0.137E-03
DAV:   2    -0.380648964822E+02    0.14875E-07   -0.27418E-07 11468   0.648E-03    0.770E-04
DAV:   3    -0.380648964818E+02    0.46612E-09   -0.24239E-08  6364   0.293E-03
  61 F= -.38064896E+02 E0= -.38045631E+02  d E =-.321236E-06
 ZBRENT: can't locate minimum, use default step
 trial-energy change:   -0.000000  1 .order   -0.000000   -0.000000   -0.000000
 step:   0.0518(harm=  0.2662)  dis= 0.00007  next Energy=   -38.064900 (dE=-0.352E-05)
 bond charge predicted
       N       E                     dE             d eps       ncg     rms          rms(c)
DAV:   1    -0.380648975056E+02   -0.10234E-05   -0.64043E-05 10228   0.477E-02    0.416E-03
DAV:   2    -0.380648973960E+02    0.10957E-06   -0.23636E-06 11416   0.172E-02    0.231E-03
DAV:   3    -0.380648973529E+02    0.43083E-07   -0.22592E-07 12752   0.648E-03    0.107E-03
DAV:   4    -0.380648973377E+02    0.15203E-07   -0.67657E-08 10652   0.444E-03    0.233E-04
DAV:   5    -0.380648973420E+02   -0.42774E-08   -0.18366E-08  5640   0.233E-03
  62 F= -.38064897E+02 E0= -.38045630E+02  d E =-.118147E-05
 curvature:  -0.33 expect dE=-0.580E-05 dE for cont linesearch -0.597E-06
 ZBRENT: increasing intervall
 opt :   0.1295  next Energy=   -38.064899 (dE=-0.241E-05)
 bond charge predicted
       N       E                     dE             d eps       ncg     rms          rms(c)
DAV:   1    -0.380648992463E+02   -0.19086E-05   -0.25619E-04 10224   0.957E-02    0.828E-03
DAV:   2    -0.380648988956E+02    0.35073E-06   -0.98202E-06 11296   0.358E-02    0.456E-03
DAV:   3    -0.380648987026E+02    0.19300E-06   -0.10113E-06 13972   0.127E-02    0.214E-03
DAV:   4    -0.380648986318E+02    0.70786E-07   -0.18781E-07 12084   0.787E-03    0.487E-04
DAV:   5    -0.380648986423E+02   -0.10422E-07   -0.69666E-08 10576   0.371E-03    0.214E-04
DAV:   6    -0.380648986441E+02   -0.18545E-08   -0.12460E-08  5716   0.198E-03
  63 F= -.38064899E+02 E0= -.38045629E+02  d E =-.248359E-05
 curvature:  -0.68 expect dE=-0.678E-05 dE for cont linesearch -0.552E-06
 ZBRENT: increasing intervall
 opt :   0.2849  next Energy=   -38.064900 (dE=-0.357E-05)
 bond charge predicted
       N       E                     dE             d eps       ncg     rms          rms(c)
DAV:   1    -0.380649015089E+02   -0.28666E-05   -0.10238E-03 10224   0.191E-01    0.166E-02
DAV:   2    -0.380649002033E+02    0.13056E-05   -0.39192E-05 11296   0.719E-02    0.913E-03
DAV:   3    -0.380648993471E+02    0.85619E-06   -0.40210E-06 14084   0.259E-02    0.428E-03
DAV:   4    -0.380648990566E+02    0.29051E-06   -0.75240E-07 12096   0.151E-02    0.986E-04
DAV:   5    -0.380648990840E+02   -0.27370E-07   -0.28487E-07 10652   0.754E-03    0.435E-04
DAV:   6    -0.380648990897E+02   -0.56689E-08   -0.50802E-08  9680   0.404E-03
  64 F= -.38064899E+02 E0= -.38045623E+02  d E =-.292916E-05
 curvature:  -1.35 expect dE=-0.166E-04 dE for cont linesearch -0.279E-08
 trial: gam= 0.50166 g(F)=  0.106E-04 g(S)=  0.176E-05 ort =-0.695E-06 (trialstep = 0.673E-01)
 search vector abs. value=  0.702E-04
 bond charge predicted
       N       E                     dE             d eps       ncg     rms          rms(c)
DAV:   1    -0.380649000261E+02   -0.94206E-06   -0.58346E-05 10156   0.451E-02    0.390E-03
DAV:   2    -0.380648999433E+02    0.82764E-07   -0.20753E-06 11184   0.176E-02    0.206E-03
DAV:   3    -0.380648998951E+02    0.48225E-07   -0.23121E-07 12444   0.932E-03    0.104E-03
DAV:   4    -0.380648998874E+02    0.76643E-08   -0.69284E-08 10700   0.632E-03
  65 F= -.38064900E+02 E0= -.38045622E+02  d E =-.797743E-06
 ZBRENT: can't locate minimum, use default step
 trial-energy change:   -0.000001  1 .order   -0.000001   -0.000001   -0.000001
 step:   0.2694(harm=  2.4652)  dis= 0.00020  next Energy=   -38.064914 (dE=-0.148E-04)
 bond charge predicted
       N       E                     dE             d eps       ncg     rms          rms(c)
DAV:   1    -0.380649034396E+02   -0.35445E-05   -0.52476E-04 10132   0.135E-01    0.116E-02
DAV:   2    -0.380649027009E+02    0.73870E-06   -0.18436E-05 11272   0.525E-02    0.616E-03
DAV:   3    -0.380649022371E+02    0.46374E-06   -0.21497E-06 12564   0.302E-02    0.314E-03
DAV:   4    -0.380649021131E+02    0.12404E-06   -0.63500E-07 12840   0.190E-02    0.791E-04
DAV:   5    -0.380649021295E+02   -0.16412E-07   -0.24738E-07 10612   0.642E-03    0.328E-04
DAV:   6    -0.380649021332E+02   -0.36725E-08   -0.50641E-08  8996   0.326E-03
  66 F= -.38064902E+02 E0= -.38045621E+02  d E =-.304350E-05
 curvature:  -1.16 expect dE=-0.115E-04 dE for cont linesearch -0.161E-05
 ZBRENT: increasing intervall
 opt :   0.6734  next Energy=   -38.064905 (dE=-0.628E-05)
 bond charge predicted
       N       E                     dE             d eps       ncg     rms          rms(c)
DAV:   1    -0.380649112099E+02   -0.90804E-05   -0.21002E-03 10132   0.270E-01    0.233E-02
DAV:   2    -0.380649082651E+02    0.29449E-05   -0.74103E-05 11208   0.105E-01    0.123E-02
DAV:   3    -0.380649063297E+02    0.19353E-05   -0.84738E-06 12556   0.587E-02    0.627E-03
DAV:   4    -0.380649057722E+02    0.55754E-06   -0.25414E-06 12760   0.380E-02    0.156E-03
DAV:   5    -0.380649058282E+02   -0.55989E-07   -0.97201E-07 10608   0.131E-02    0.653E-04
DAV:   6    -0.380649058429E+02   -0.14755E-07   -0.20881E-07 10940   0.643E-03    0.455E-04
DAV:   7    -0.380649058417E+02    0.12319E-08   -0.40340E-08  7724   0.411E-03
  67 F= -.38064906E+02 E0= -.38045616E+02  d E =-.675204E-05
 curvature:  -2.34 expect dE=-0.193E-04 dE for cont linesearch -0.187E-05
 ZBRENT: increasing intervall
 opt :   1.4815  next Energy=   -38.064910 (dE=-0.109E-04)
 bond charge predicted
       N       E                     dE             d eps       ncg     rms          rms(c)
DAV:   1    -0.380649305474E+02   -0.24704E-04   -0.83985E-03 10132   0.539E-01    0.466E-02
DAV:   2    -0.380649186924E+02    0.11855E-04   -0.29556E-04 11224   0.207E-01    0.247E-02
DAV:   3    -0.380649108399E+02    0.78525E-05   -0.33237E-05 12548   0.113E-01    0.125E-02
DAV:   4    -0.380649084918E+02    0.23481E-05   -0.99708E-06 12616   0.752E-02    0.313E-03
DAV:   5    -0.380649086868E+02   -0.19499E-06   -0.38035E-06 10636   0.268E-02    0.130E-03
DAV:   6    -0.380649087487E+02   -0.61885E-07   -0.85204E-07 11824   0.127E-02    0.912E-04
DAV:   7    -0.380649087492E+02   -0.59936E-09   -0.17105E-07 10856   0.830E-03    0.437E-04
DAV:   8    -0.380649087461E+02    0.31546E-08   -0.50606E-08  7800   0.379E-03
  68 F= -.38064909E+02 E0= -.38045603E+02  d E =-.965642E-05
 curvature:  -5.18 expect dE=-0.651E-04 dE for cont linesearch -0.436E-06
 trial: gam= 0.67442 g(F)=  0.590E-05 g(S)=  0.666E-05 ort = 0.243E-05 (trialstep = 0.350E+00)
 search vector abs. value=  0.478E-04
 bond charge predicted
       N       E                     dE             d eps       ncg     rms          rms(c)
DAV:   1    -0.380649154052E+02   -0.66560E-05   -0.10805E-03 10284   0.203E-01    0.171E-02
DAV:   2    -0.380649149696E+02    0.43567E-06   -0.49071E-05 11440   0.876E-02    0.978E-03
DAV:   3    -0.380649136600E+02    0.13095E-05   -0.49807E-06 11604   0.392E-02    0.488E-03
DAV:   4    -0.380649131743E+02    0.48579E-06   -0.15115E-06 11960   0.307E-02    0.957E-04
DAV:   5    -0.380649132023E+02   -0.27994E-07   -0.58184E-07 11032   0.116E-02    0.502E-04
DAV:   6    -0.380649132184E+02   -0.16194E-07   -0.14220E-07  9956   0.442E-03    0.306E-04
DAV:   7    -0.380649132253E+02   -0.68444E-08   -0.21288E-08  7320   0.358E-03
  69 F= -.38064913E+02 E0= -.38045600E+02  d E =-.447919E-05
 trial-energy change:   -0.000004  1 .order   -0.000003   -0.000005   -0.000002
 step:   0.4036(harm=  0.5326)  dis= 0.00022  next Energy=   -38.064913 (dE=-0.461E-05)
 bond charge predicted
       N       E                     dE             d eps       ncg     rms          rms(c)
DAV:   1    -0.380649135412E+02   -0.32273E-06   -0.25318E-05 10304   0.309E-02    0.261E-03
DAV:   2    -0.380649135349E+02    0.62696E-08   -0.11465E-06 11488   0.131E-02    0.148E-03
DAV:   3    -0.380649134799E+02    0.54984E-07   -0.11814E-07 11716   0.531E-03    0.737E-04
DAV:   4    -0.380649134563E+02    0.23651E-07   -0.28698E-08  8496   0.444E-03    0.152E-04
DAV:   5    -0.380649134553E+02    0.93087E-09   -0.11702E-08  5360   0.176E-03
  70 F= -.38064913E+02 E0= -.38045599E+02  d E =-.470925E-05
 curvature:  -0.45 expect dE=-0.839E-05 dE for cont linesearch -0.129E-06
 ZBRENT: increasing intervall
 opt :   0.5104  next Energy=   -38.064914 (dE=-0.498E-05)
 bond charge predicted
       N       E                     dE             d eps       ncg     rms          rms(c)
DAV:   1    -0.380649139347E+02   -0.47840E-06   -0.10037E-04 10284   0.618E-02    0.521E-03
DAV:   2    -0.380649139026E+02    0.32076E-07   -0.45640E-06 11448   0.264E-02    0.298E-03
DAV:   3    -0.380649137413E+02    0.16130E-06   -0.45641E-07 11928   0.113E-02    0.149E-03
DAV:   4    -0.380649136755E+02    0.65821E-07   -0.13248E-07 11900   0.900E-03    0.290E-04
DAV:   5    -0.380649136755E+02   -0.20464E-10   -0.47984E-08  9736   0.346E-03
  71 F= -.38064914E+02 E0= -.38045597E+02  d E =-.492941E-05
 curvature:  -0.95 expect dE=-0.282E-04 dE for cont linesearch -0.590E-08
 trial: gam= 2.51294 g(F)=  0.290E-04 g(S)=  0.780E-06 ort = 0.545E-06 (trialstep = 0.546E-01)
 search vector abs. value=  0.334E-03
 bond charge predicted
       N       E                     dE             d eps       ncg     rms          rms(c)
DAV:   1    -0.380649156512E+02   -0.19757E-05   -0.19260E-04 10264   0.817E-02    0.631E-03
DAV:   2    -0.380649156341E+02    0.17054E-07   -0.71453E-06 11656   0.338E-02    0.356E-03
DAV:   3    -0.380649154526E+02    0.18148E-06   -0.87627E-07 11492   0.158E-02    0.192E-03
DAV:   4    -0.380649153696E+02    0.82997E-07   -0.25080E-07 12268   0.124E-02    0.427E-04
DAV:   5    -0.380649153693E+02    0.31423E-09   -0.90780E-08 11112   0.464E-03
  72 F= -.38064915E+02 E0= -.38045597E+02  d E =-.169383E-05
 ZBRENT: can't locate minimum, use default step
 trial-energy change:   -0.000002  1 .order   -0.000002   -0.000002   -0.000002
 step:   0.2185(harm=  0.4641)  dis= 0.00030  next Energy=   -38.064921 (dE=-0.723E-05)
 bond charge predicted
       N       E                     dE             d eps       ncg     rms          rms(c)
DAV:   1    -0.380649217589E+02   -0.63892E-05   -0.17319E-03 10260   0.245E-01    0.189E-02
DAV:   2    -0.380649212532E+02    0.50565E-06   -0.63894E-05 11696   0.102E-01    0.107E-02
DAV:   3    -0.380649199467E+02    0.13065E-05   -0.79071E-06 11448   0.479E-02    0.576E-03
DAV:   4    -0.380649193428E+02    0.60392E-06   -0.22564E-06 12280   0.373E-02    0.128E-03
DAV:   5    -0.380649193743E+02   -0.31576E-07   -0.83524E-07 11544   0.139E-02    0.689E-04
DAV:   6    -0.380649193873E+02   -0.13004E-07   -0.20672E-07 10884   0.515E-03    0.385E-04
DAV:   7    -0.380649193897E+02   -0.23815E-08   -0.22843E-08  7000   0.410E-03
  73 F= -.38064919E+02 E0= -.38045594E+02  d E =-.571423E-05
[...]
DAV:   5    -0.380649267272E+02   -0.36798E-08   -0.29209E-08  7368   0.261E-03
  79 F= -.38064927E+02 E0= -.38045585E+02  d E =-.175891E-05
 curvature:  -0.30 expect dE=-0.450E-05 dE for cont linesearch -0.884E-06
 ZBRENT: increasing intervall
 opt :   0.2386  next Energy=   -38.064928 (dE=-0.347E-05)
 bond charge predicted
       N       E                     dE             d eps       ncg     rms          rms(c)
DAV:   1    -0.380649284637E+02   -0.17402E-05   -0.37129E-04 10140   0.108E-01    0.609E-03
DAV:   2    -0.380649287737E+02   -0.30997E-06   -0.93360E-06 11164   0.293E-02    0.384E-03
DAV:   3    -0.380649286323E+02    0.14144E-06   -0.10562E-06 12696   0.192E-02    0.198E-03
DAV:   4    -0.380649285614E+02    0.70858E-07   -0.30531E-07 12104   0.130E-02    0.452E-04
DAV:   5    -0.380649285757E+02   -0.14340E-07   -0.15769E-07 13092   0.491E-03    0.293E-04
DAV:   6    -0.380649285777E+02   -0.19586E-08   -0.19412E-08  6236   0.227E-03
  80 F= -.38064929E+02 E0= -.38045585E+02  d E =-.360942E-05
 curvature:  -0.59 expect dE=-0.442E-05 dE for cont linesearch -0.591E-06
 ZBRENT: increasing intervall
 opt :   0.5249  next Energy=   -38.064929 (dE=-0.441E-05)
 bond charge predicted
       N       E                     dE             d eps       ncg     rms          rms(c)
DAV:   1    -0.380649289277E+02   -0.35199E-06   -0.14842E-03 10136   0.216E-01    0.122E-02
DAV:   2    -0.380649301861E+02   -0.12584E-05   -0.37247E-05 11136   0.610E-02    0.772E-03
DAV:   3    -0.380649296127E+02    0.57339E-06   -0.44932E-06 12540   0.414E-02    0.402E-03
DAV:   4    -0.380649293454E+02    0.26734E-06   -0.12769E-06 12156   0.269E-02    0.909E-04
DAV:   5    -0.380649294017E+02   -0.56356E-07   -0.66001E-07 13292   0.970E-03    0.595E-04
DAV:   6    -0.380649294078E+02   -0.61368E-08   -0.84664E-08  9784   0.467E-03
  81 F= -.38064929E+02 E0= -.38045582E+02  d E =-.443957E-05
 curvature:  -0.79 expect dE=-0.335E-05 dE for cont linesearch -0.161E-06
 ZBRENT: bracketing found
 ZBRENT: interpolating
 opt :   0.4361  next Energy=   -38.064930 (dE=-0.463E-05)
 bond charge predicted
       N       E                     dE             d eps       ncg     rms          rms(c)
DAV:   1    -0.380649295004E+02   -0.98647E-07   -0.14198E-04 10140   0.667E-02    0.375E-03
DAV:   2    -0.380649296437E+02   -0.14331E-06   -0.35207E-06 11164   0.171E-02    0.237E-03
DAV:   3    -0.380649295715E+02    0.72169E-07   -0.35529E-07 12832   0.102E-02    0.118E-03
DAV:   4    -0.380649295556E+02    0.15860E-07   -0.10718E-07 11192   0.720E-03    0.273E-04
DAV:   5    -0.380649295577E+02   -0.20987E-08   -0.47663E-08  9036   0.297E-03
  82 F= -.38064930E+02 E0= -.38045583E+02  d E =-.458946E-05
 curvature:  -0.92 expect dE=-0.330E-05 dE for cont linesearch -0.888E-08
 trial: gam=-0.02488 g(F)=  0.268E-05 g(S)=  0.902E-06 ort = 0.920E-06 (trialstep = 0.106E+00)
 search vector abs. value=  0.359E-05
 bond charge predicted
       N       E                     dE             d eps       ncg     rms          rms(c)
DAV:   1    -0.380649298953E+02   -0.33971E-06   -0.78428E-06 10176   0.178E-02    0.138E-03
DAV:   2    -0.380649299081E+02   -0.12742E-07   -0.50080E-07 11168   0.690E-03    0.907E-04
DAV:   3    -0.380649298825E+02    0.25595E-07   -0.35676E-08  9928   0.208E-03    0.451E-04
DAV:   4    -0.380649298692E+02    0.13278E-07   -0.93135E-09  5416   0.123E-03    0.919E-05
DAV:   5    -0.380649298689E+02    0.34606E-09   -0.39564E-09  5128   0.697E-04
  83 F= -.38064930E+02 E0= -.38045584E+02  d E =-.311133E-06
 trial-energy change:   -0.000000  1 .order   -0.000000   -0.000000   -0.000000
 step:   0.4223(harm=  0.4223)  dis= 0.00006  next Energy=   -38.064930 (dE=-0.752E-06)
 bond charge predicted
       N       E                     dE             d eps       ncg     rms          rms(c)
DAV:   1    -0.380649302704E+02   -0.40122E-06   -0.69278E-05 10192   0.530E-02    0.411E-03
DAV:   2    -0.380649304085E+02   -0.13808E-06   -0.44074E-06 11176   0.209E-02    0.269E-03
DAV:   3    -0.380649302807E+02    0.12779E-06   -0.33353E-07 13104   0.769E-03    0.135E-03
DAV:   4    -0.380649302234E+02    0.57368E-07   -0.96434E-08 10868   0.513E-03    0.272E-04
DAV:   5    -0.380649302245E+02   -0.11801E-08   -0.28784E-08  7236   0.218E-03
  84 F= -.38064930E+02 E0= -.38045583E+02  d E =-.666799E-06
 curvature:  -0.21 expect dE=-0.136E-05 dE for cont linesearch -0.589E-09
 trial: gam= 1.81097 g(F)=  0.587E-05 g(S)=  0.534E-06 ort =-0.997E-07 (trialstep = 0.342E-01)
 search vector abs. value=  0.178E-04
 bond charge predicted
       N       E                     dE             d eps       ncg     rms          rms(c)
DAV:   1    -0.380649304352E+02   -0.21187E-06   -0.41490E-06 10196   0.115E-02    0.747E-04
DAV:   2    -0.380649304482E+02   -0.13015E-07   -0.16443E-07 11688   0.320E-03    0.444E-04
DAV:   3    -0.380649304442E+02    0.40291E-08   -0.85238E-09  5476   0.110E-03
  85 F= -.38064930E+02 E0= -.38045583E+02  d E =-.219678E-06
 ZBRENT: can't locate minimum, use default step
 trial-energy change:   -0.000000  1 .order   -0.000000   -0.000000   -0.000000
 step:   0.1367(harm=  1.6501)  dis= 0.00005  next Energy=   -38.064935 (dE=-0.513E-05)
 bond charge predicted
       N       E                     dE             d eps       ncg     rms          rms(c)
DAV:   1    -0.380649309797E+02   -0.53148E-06   -0.36840E-05 10156   0.343E-02    0.225E-03
DAV:   2    -0.380649310399E+02   -0.60137E-07   -0.13988E-06 11732   0.107E-02    0.137E-03
DAV:   3    -0.380649310115E+02    0.28383E-07   -0.12218E-07 12308   0.634E-03    0.761E-04
DAV:   4    -0.380649310051E+02    0.64183E-08   -0.36761E-08  9196   0.426E-03
  86 F= -.38064931E+02 E0= -.38045584E+02  d E =-.780527E-06
 curvature:  -0.29 expect dE=-0.107E-05 dE for cont linesearch -0.363E-06
 ZBRENT: increasing intervall
 opt :   0.3417  next Energy=   -38.064932 (dE=-0.147E-05)
 bond charge predicted
       N       E                     dE             d eps       ncg     rms          rms(c)
DAV:   1    -0.380649316343E+02   -0.62281E-06   -0.14769E-04 10144   0.690E-02    0.448E-03
DAV:   2    -0.380649318648E+02   -0.23048E-06   -0.57071E-06 11156   0.242E-02    0.275E-03
DAV:   3    -0.380649317764E+02    0.88385E-07   -0.65901E-07 12320   0.166E-02    0.155E-03
DAV:   4    -0.380649317414E+02    0.35004E-07   -0.17992E-07 11848   0.942E-03    0.345E-04
DAV:   5    -0.380649317479E+02   -0.65370E-08   -0.84174E-08 11184   0.376E-03
  87 F= -.38064932E+02 E0= -.38045585E+02  d E =-.152339E-05
 curvature:  -0.55 expect dE=-0.797E-06 dE for cont linesearch -0.121E-06
 ZBRENT: increasing intervall
 opt :   0.7516  next Energy=   -38.064931 (dE=-0.121E-05)
 bond charge predicted
       N       E                     dE             d eps       ncg     rms          rms(c)
DAV:   1    -0.380649302704E+02    0.14710E-05   -0.59205E-04 10152   0.138E-01    0.895E-03
DAV:   2    -0.380649311425E+02   -0.87213E-06   -0.22975E-05 11472   0.455E-02    0.546E-03
DAV:   3    -0.380649307744E+02    0.36813E-06   -0.21711E-06 12492   0.283E-02    0.306E-03
DAV:   4    -0.380649306205E+02    0.15389E-06   -0.64338E-07 12004   0.178E-02    0.664E-04
DAV:   5    -0.380649306399E+02   -0.19445E-07   -0.27344E-07 11720   0.727E-03    0.433E-04
DAV:   6    -0.380649306415E+02   -0.15357E-08   -0.52632E-08  8936   0.315E-03
  88 F= -.38064931E+02 E0= -.38045585E+02  d E =-.416927E-06
 curvature:   1.41 expect dE= 0.647E-05 dE for cont linesearch  0.685E-06
 ZBRENT: bracketing found
 ZBRENT: interpolating
 opt :   0.5066  next Energy=   -38.064932 (dE=-0.169E-05)
 bond charge predicted
       N       E                     dE             d eps       ncg     rms          rms(c)
DAV:   1    -0.380649319212E+02   -0.12812E-05   -0.21028E-04 10144   0.820E-02    0.531E-03
DAV:   2    -0.380649321615E+02   -0.24036E-06   -0.80637E-06 11508   0.255E-02    0.323E-03
DAV:   3    -0.380649320419E+02    0.11959E-06   -0.67057E-07 12728   0.147E-02    0.179E-03
DAV:   4    -0.380649319721E+02    0.69876E-07   -0.21459E-07 11988   0.988E-03    0.387E-04
DAV:   5    -0.380649319782E+02   -0.61627E-08   -0.82743E-08 10928   0.423E-03
  89 F= -.38064932E+02 E0= -.38045586E+02  d E =-.175370E-05
 curvature:  -0.34 expect dE=-0.529E-06 dE for cont linesearch -0.425E-08
 trial: gam= 0.17960 g(F)=  0.128E-05 g(S)=  0.289E-06 ort = 0.475E-06 (trialstep = 0.129E+00)
 search vector abs. value=  0.232E-05
 bond charge predicted
       N       E                     dE             d eps       ncg     rms          rms(c)
DAV:   1    -0.380649321926E+02   -0.22053E-06   -0.70482E-06 10244   0.149E-02    0.985E-04
DAV:   2    -0.380649321999E+02   -0.72914E-08   -0.19454E-07 11528   0.422E-03    0.573E-04
DAV:   3    -0.380649321887E+02    0.11134E-07   -0.14998E-08  5612   0.181E-03    0.236E-04
DAV:   4    -0.380649321892E+02   -0.45020E-09   -0.74311E-09  5096   0.146E-03
  90 F= -.38064932E+02 E0= -.38045586E+02  d E =-.210974E-06
 ZBRENT: can't locate minimum, use default step
 trial-energy change:   -0.000000  1 .order   -0.000000   -0.000000   -0.000000
 step:   0.5146(harm=  1.8570)  dis= 0.00008  next Energy=   -38.064934 (dE=-0.154E-05)
 bond charge predicted
       N       E                     dE             d eps       ncg     rms          rms(c)
DAV:   1    -0.380649317153E+02    0.47349E-06   -0.63834E-05 10252   0.448E-02    0.293E-03
DAV:   2    -0.380649317727E+02   -0.57408E-07   -0.18217E-06 11808   0.130E-02    0.170E-03
DAV:   3    -0.380649317107E+02    0.61943E-07   -0.16828E-07 13948   0.493E-03    0.691E-04
DAV:   4    -0.380649317067E+02    0.40163E-08   -0.34780E-08  9096   0.236E-03
  91 F= -.38064932E+02 E0= -.38045585E+02  d E =0.271523E-06
 curvature:  -0.52 expect dE=-0.686E-06 dE for cont linesearch -0.474E-06
 ZBRENT: increasing intervall
 opt :   1.2866  next Energy=   -38.064933 (dE=-0.793E-06)
 bond charge predicted
       N       E                     dE             d eps       ncg     rms          rms(c)
DAV:   1    -0.380649328179E+02   -0.11072E-05   -0.25499E-04 10248   0.896E-02    0.587E-03
DAV:   2    -0.380649330107E+02   -0.19275E-06   -0.72425E-06 11776   0.265E-02    0.342E-03
DAV:   3    -0.380649327924E+02    0.21824E-06   -0.67051E-07 13076   0.117E-02    0.140E-03
DAV:   4    -0.380649327715E+02    0.20936E-07   -0.18209E-07 11012   0.672E-03    0.290E-04
DAV:   5    -0.380649327774E+02   -0.58676E-08   -0.52672E-08  9920   0.281E-03
  92 F= -.38064933E+02 E0= -.38045585E+02  d E =-.799129E-06
 curvature:  -1.16 expect dE=-0.137E-05 dE for cont linesearch -0.669E-06
 ZBRENT: increasing intervall
 opt :   2.8306  next Energy=   -38.064934 (dE=-0.212E-05)
 bond charge predicted
       N       E                     dE             d eps       ncg     rms          rms(c)
DAV:   1    -0.380649345656E+02   -0.17941E-05   -0.10209E-03 10256   0.179E-01    0.117E-02
DAV:   2    -0.380649353036E+02   -0.73796E-06   -0.29161E-05 11824   0.524E-02    0.684E-03
DAV:   3    -0.380649344890E+02    0.81456E-06   -0.26785E-06 13744   0.207E-02    0.277E-03
DAV:   4    -0.380649343898E+02    0.99236E-07   -0.61718E-07 10892   0.106E-02    0.562E-04
DAV:   5    -0.380649344049E+02   -0.15127E-07   -0.16797E-07 11316   0.440E-03    0.393E-04
DAV:   6    -0.380649344065E+02   -0.16289E-08   -0.17967E-08  7508   0.267E-03
  93 F= -.38064934E+02 E0= -.38045585E+02  d E =-.242830E-05
 curvature:  -2.28 expect dE=-0.467E-05 dE for cont linesearch -0.540E-06
 ZBRENT: increasing intervall
 opt :   5.9184  next Energy=   -38.064935 (dE=-0.343E-05)
 bond charge predicted
       N       E                     dE             d eps       ncg     rms          rms(c)
DAV:   1    -0.380649363163E+02   -0.19114E-05   -0.40808E-03 10252   0.358E-01    0.235E-02
DAV:   2    -0.380649391121E+02   -0.27958E-05   -0.11647E-04 11808   0.106E-01    0.137E-02
DAV:   3    -0.380649359311E+02    0.31810E-05   -0.10535E-05 13112   0.455E-02    0.555E-03
DAV:   4    -0.380649355328E+02    0.39823E-06   -0.28682E-06 10964   0.260E-02    0.116E-03
DAV:   5    -0.380649356009E+02   -0.68116E-07   -0.80632E-07 11384   0.114E-02    0.784E-04
DAV:   6    -0.380649356092E+02   -0.82850E-08   -0.14387E-07 10592   0.718E-03    0.514E-04
DAV:   7    -0.380649356167E+02   -0.74369E-08   -0.39661E-08  7952   0.319E-03
  94 F= -.38064936E+02 E0= -.38045582E+02  d E =-.363843E-05
 curvature:  -4.22 expect dE=-0.328E-04 dE for cont linesearch -0.634E-07
 trial: gam= 5.13732 g(F)=  0.633E-05 g(S)=  0.146E-05 ort =-0.187E-06 (trialstep = 0.445E-01)
 search vector abs. value=  0.671E-04
 bond charge predicted
       N       E                     dE             d eps       ncg     rms          rms(c)
DAV:   1    -0.380649359139E+02   -0.30465E-06   -0.25208E-05 10216   0.286E-02    0.185E-03
DAV:   2    -0.380649359343E+02   -0.20413E-07   -0.79838E-07 11900   0.803E-03    0.114E-03
DAV:   3    -0.380649358984E+02    0.35908E-07   -0.58742E-08 11068   0.409E-03    0.483E-04
DAV:   4    -0.380649358923E+02    0.60249E-08   -0.24087E-08  6772   0.238E-03
  95 F= -.38064936E+02 E0= -.38045582E+02  d E =-.275691E-06
 ZBRENT: can't locate minimum, use default step
 trial-energy change:   -0.000000  1 .order   -0.000000   -0.000000   -0.000000
 step:   0.1779(harm=  0.2601)  dis= 0.00014  next Energy=   -38.064937 (dE=-0.889E-06)
 bond charge predicted
       N       E                     dE             d eps       ncg     rms          rms(c)
DAV:   1    -0.380649363538E+02   -0.45545E-06   -0.22521E-04 10176   0.855E-02    0.550E-03
DAV:   2    -0.380649365702E+02   -0.21637E-06   -0.70427E-06 11912   0.240E-02    0.340E-03
DAV:   3    -0.380649363311E+02    0.23913E-06   -0.56626E-07 13820   0.917E-03    0.141E-03
DAV:   4    -0.380649362943E+02    0.36803E-07   -0.16504E-07 11188   0.445E-03    0.380E-04
DAV:   5    -0.380649363028E+02   -0.84983E-08   -0.35775E-08  9552   0.275E-03
  96 F= -.38064936E+02 E0= -.38045581E+02  d E =-.686100E-06
 curvature:  -1.09 expect dE=-0.366E-05 dE for cont linesearch -0.164E-07
 trial: gam= 0.21563 g(F)=  0.215E-05 g(S)=  0.120E-05 ort = 0.100E-05 (trialstep = 0.712E-01)
 search vector abs. value=  0.690E-05
 bond charge predicted
       N       E                     dE             d eps       ncg     rms          rms(c)
DAV:   1    -0.380649365713E+02   -0.27705E-06   -0.69420E-06 10372   0.183E-02    0.186E-03
DAV:   2    -0.380649365420E+02    0.29268E-07   -0.55109E-07 11360   0.912E-03    0.812E-04
DAV:   3    -0.380649365464E+02   -0.43647E-08   -0.45597E-08 10320   0.354E-03
  97 F= -.38064937E+02 E0= -.38045581E+02  d E =-.243645E-06
 ZBRENT: can't locate minimum, use default step
 trial-energy change:   -0.000000  1 .order   -0.000000   -0.000000   -0.000000
 step:   0.2847(harm=  1.0282)  dis= 0.00007  next Energy=   -38.064938 (dE=-0.183E-05)
 bond charge predicted
       N       E                     dE             d eps       ncg     rms          rms(c)
DAV:   1    -0.380649374887E+02   -0.94663E-06   -0.62193E-05 10348   0.543E-02    0.564E-03
DAV:   2    -0.380649372314E+02    0.25727E-06   -0.48738E-06 11316   0.263E-02    0.243E-03
DAV:   3    -0.380649371961E+02    0.35302E-07   -0.36585E-07 12372   0.771E-03    0.124E-03
DAV:   4    -0.380649371791E+02    0.16954E-07   -0.78418E-08 11356   0.563E-03    0.354E-04
DAV:   5    -0.380649371860E+02   -0.68276E-08   -0.24955E-08  6936   0.275E-03
  98 F= -.38064937E+02 E0= -.38045581E+02  d E =-.883204E-06
 curvature:  -0.39 expect dE=-0.596E-06 dE for cont linesearch -0.340E-06
 ZBRENT: increasing intervall
 opt :   0.7117  next Energy=   -38.064938 (dE=-0.155E-05)
 bond charge predicted
       N       E                     dE             d eps       ncg     rms          rms(c)
DAV:   1    -0.380649392093E+02   -0.20301E-05   -0.24925E-04 10352   0.110E-01    0.112E-02
DAV:   2    -0.380649382664E+02    0.94285E-06   -0.19954E-05 11296   0.533E-02    0.477E-03
DAV:   3    -0.380649380709E+02    0.19548E-06   -0.14775E-06 12220   0.168E-02    0.244E-03
DAV:   4    -0.380649379772E+02    0.93755E-07   -0.33837E-07 12220   0.119E-02    0.701E-04
DAV:   5    -0.380649379906E+02   -0.13423E-07   -0.11791E-07 10752   0.583E-03    0.217E-04
DAV:   6    -0.380649379941E+02   -0.34770E-08   -0.29872E-08  7864   0.223E-03
  99 F= -.38064938E+02 E0= -.38045580E+02  d E =-.169134E-05
 curvature:  -0.77 expect dE=-0.829E-06 dE for cont linesearch -0.105E-06
 ZBRENT: increasing intervall
 opt :   1.5658  next Energy=   -38.064938 (dE=-0.127E-05)
 bond charge predicted
       N       E                     dE             d eps       ncg     rms          rms(c)
DAV:   1    -0.380649440816E+02   -0.60910E-05   -0.99692E-04 10348   0.220E-01    0.224E-02
DAV:   2    -0.380649403463E+02    0.37353E-05   -0.79528E-05 11300   0.107E-01    0.953E-03
DAV:   3    -0.380649394340E+02    0.91239E-06   -0.59804E-06 12252   0.354E-02    0.489E-03
DAV:   4    -0.380649390048E+02    0.42914E-06   -0.13711E-06 12236   0.247E-02    0.140E-03
DAV:   5    -0.380649390288E+02   -0.23972E-07   -0.49210E-07 10856   0.119E-02    0.432E-04
DAV:   6    -0.380649390404E+02   -0.11628E-07   -0.13168E-07 11024   0.458E-03    0.353E-04
DAV:   7    -0.380649390373E+02    0.30818E-08   -0.19593E-08  7428   0.267E-03
 100 F= -.38064939E+02 E0= -.38045579E+02  d E =-.273457E-05
 curvature:   3.13 expect dE= 0.231E-04 dE for cont linesearch  0.166E-05
 ZBRENT: bracketing found
 ZBRENT: interpolating
 opt :   0.9989  next Energy=   -38.064938 (dE=-0.183E-05)
 bond charge predicted
       N       E                     dE             d eps       ncg     rms          rms(c)
DAV:   1    -0.380649418629E+02   -0.28225E-05   -0.43794E-04 10332   0.146E-01    0.148E-02
DAV:   2    -0.380649402807E+02    0.15822E-05   -0.35034E-05 11292   0.714E-02    0.635E-03
DAV:   3    -0.380649397372E+02    0.54347E-06   -0.26637E-06 12184   0.240E-02    0.325E-03
DAV:   4    -0.380649394797E+02    0.25751E-06   -0.60283E-07 12236   0.167E-02    0.931E-04
DAV:   5    -0.380649394550E+02    0.24717E-07   -0.22081E-07 10824   0.788E-03    0.286E-04
DAV:   6    -0.380649394554E+02   -0.43201E-09   -0.57299E-08  9528   0.304E-03
 101 F= -.38064939E+02 E0= -.38045581E+02  d E =-.315264E-05
 curvature:  -0.26 expect dE=-0.489E-06 dE for cont linesearch -0.149E-07
 trial: gam= 0.00000 g(F)=  0.134E-05 g(S)=  0.527E-06 ort = 0.626E-06 (trialstep = 0.257E+00)
 search vector abs. value=  0.186E-05
 bond charge predicted
       N       E                     dE             d eps       ncg     rms          rms(c)
DAV:   1    -0.380649396347E+02   -0.17978E-06   -0.23585E-05  9988   0.291E-02    0.251E-03
DAV:   2    -0.380649396835E+02   -0.48784E-07   -0.16682E-06 11000   0.103E-02    0.176E-03
DAV:   3    -0.380649396182E+02    0.65375E-07   -0.11561E-07 11828   0.380E-03    0.988E-04
DAV:   4    -0.380649395825E+02    0.35635E-07   -0.58261E-08 10412   0.248E-03    0.280E-04
DAV:   5    -0.380649395873E+02   -0.47530E-08   -0.85092E-09  5404   0.173E-03
 102 F= -.38064940E+02 E0= -.38045580E+02  d E =-.131874E-06
 trial-energy change:   -0.000000  1 .order   -0.000000   -0.000000    0.000000
 step:   0.1805(harm=  0.2129)  dis= 0.00002  next Energy=   -38.064940 (dE=-0.148E-06)
 bond charge predicted
       N       E                     dE             d eps       ncg     rms          rms(c)
DAV:   1    -0.380649395863E+02   -0.37708E-08   -0.20540E-06 10000   0.864E-03    0.725E-04
DAV:   2    -0.380649396056E+02   -0.19355E-07   -0.14576E-07 10864   0.316E-03    0.516E-04
DAV:   3    -0.380649396091E+02   -0.34593E-08   -0.84335E-09  5136   0.143E-03
 103 F= -.38064940E+02 E0= -.38045580E+02  d E =-.153706E-06
 curvature:  -0.05 expect dE=-0.453E-07 dE for cont linesearch -0.804E-09
 trial: gam= 0.40871 g(F)=  0.762E-06 g(S)=  0.176E-06 ort = 0.176E-06 (trialstep = 0.241E+00)
 search vector abs. value=  0.139E-05
 reached required accuracy - stopping structural energy minimisation
 writing wavefunctions
Thu Jan  6 02:11:15 CST 2022
