Thu Jan  6 00:08:45 CST 2022
 running on   48 total cores
 distrk:  each k-point on   48 cores,    1 groups
 distr:  one band on   24 cores,    2 groups
 using from now: INCAR     
 vasp.5.3.5 31Mar14 (build Jan 11 2016 19:50:55) complex                        
  
 POSCAR found type information on POSCAR  Zn Ga N  O 
 POSCAR found :  4 types and       8 ions
 scaLAPACK will be used

 ----------------------------------------------------------------------------- 
|                                                                             |
|           W    W    AA    RRRRR   N    N  II  N    N   GGGG   !!!           |
|           W    W   A  A   R    R  NN   N  II  NN   N  G    G  !!!           |
|           W    W  A    A  R    R  N N  N  II  N N  N  G       !!!           |
|           W WW W  AAAAAA  RRRRR   N  N N  II  N  N N  G  GGG   !            |
|           WW  WW  A    A  R   R   N   NN  II  N   NN  G    G                |
|           W    W  A    A  R    R  N    N  II  N    N   GGGG   !!!           |
|                                                                             |
|      For optimal performance we recommend to set                            |
|        NCORE= 4 - approx SQRT( number of cores)                             |
|      NCORE specifies how many cores store one orbital (NPAR=cpu/NCORE).     |
|      This setting can  greatly improve the performance of VASP for DFT.     |
|      The default, NPAR=number of cores might be grossly inefficient         |
|      on modern multi-core architectures or massively parallel machines.     |
|      Do your own testing !!!!                                               |
|      Unfortunately you need to use the default for GW and RPA calculations. |
|      (for HF NCORE is supported but not extensively tested yet)             |
|                                                                             |
 ----------------------------------------------------------------------------- 

 LDA part: xc-table for Pade appr. of Perdew
 POSCAR, INCAR and KPOINTS ok, starting setup
 WARNING: small aliasing (wrap around) errors must be expected
 FFT: planning ...
 WAVECAR not read
 entering main loop
       N       E                     dE             d eps       ncg     rms          rms(c)
DAV:   1     0.891259234846E+03    0.89126E+03   -0.42252E+04 10156   0.326E+03
DAV:   2     0.142743494345E+03   -0.74852E+03   -0.71984E+03  9944   0.772E+02
DAV:   3    -0.283872998714E+02   -0.17113E+03   -0.16651E+03 11284   0.264E+02
DAV:   4    -0.435238063850E+02   -0.15137E+02   -0.14953E+02 11764   0.787E+01
DAV:   5    -0.440407988254E+02   -0.51699E+00   -0.51445E+00 12404   0.141E+01    0.161E+01
DAV:   6    -0.382012583877E+02    0.58395E+01   -0.31462E+01 18492   0.735E+01    0.849E+00
DAV:   7    -0.383180875188E+02   -0.11683E+00   -0.73667E+00 10764   0.220E+01    0.581E+00
DAV:   8    -0.382682132011E+02    0.49874E-01   -0.10712E+00 14016   0.107E+01    0.330E+00
DAV:   9    -0.382851089284E+02   -0.16896E-01   -0.38306E-01 14468   0.825E+00    0.107E+00
DAV:  10    -0.382652302235E+02    0.19879E-01   -0.80859E-02 14384   0.430E+00    0.400E-01
DAV:  11    -0.382655447875E+02   -0.31456E-03   -0.35976E-02 13200   0.132E+00    0.174E-01
DAV:  12    -0.382657560553E+02   -0.21127E-03   -0.39763E-03 12412   0.640E-01    0.771E-02
DAV:  13    -0.382658762501E+02   -0.12019E-03   -0.74503E-04 11428   0.281E-01    0.326E-02
DAV:  14    -0.382659181006E+02   -0.41851E-04   -0.11076E-04 12096   0.133E-01    0.197E-02
DAV:  15    -0.382659230467E+02   -0.49461E-05   -0.31679E-05 12476   0.502E-02    0.685E-03
DAV:  16    -0.382659269903E+02   -0.39436E-05   -0.95321E-06 10916   0.211E-02    0.338E-03
DAV:  17    -0.382659270258E+02   -0.35544E-07   -0.10571E-06 12632   0.128E-02    0.177E-03
DAV:  18    -0.382659270726E+02   -0.46777E-07   -0.47045E-07 12680   0.769E-03    0.710E-04
DAV:  19    -0.382659270474E+02    0.25222E-07   -0.10835E-07 12864   0.578E-03    0.325E-04
DAV:  20    -0.382659270362E+02    0.11191E-07   -0.32301E-08  9780   0.295E-03    0.213E-04
DAV:  21    -0.382659270324E+02    0.37635E-08   -0.68813E-09  6216   0.123E-03
   1 F= -.38265927E+02 E0= -.38245565E+02  d E =-.382659E+02
 curvature:   0.00 expect dE= 0.000E+00 dE for cont linesearch  0.000E+00
 trial: gam= 0.00000 g(F)=  0.189E-02 g(S)=  0.138E-01 ort = 0.000E+00 (trialstep = 0.100E+01)
 search vector abs. value=  0.157E-01
 bond charge predicted
       N       E                     dE             d eps       ncg     rms          rms(c)
DAV:   1    -0.383497871274E+02   -0.83860E-01   -0.22127E+00 13152   0.186E+01    0.222E+00
DAV:   2    -0.382819788740E+02    0.67808E-01   -0.44161E-01 12384   0.102E+01    0.980E-01
DAV:   3    -0.382691252698E+02    0.12854E-01   -0.42950E-02 14060   0.250E+00    0.491E-01
DAV:   4    -0.382642443723E+02    0.48809E-02   -0.97239E-03 14088   0.127E+00    0.149E-01
DAV:   5    -0.382639164133E+02    0.32796E-03   -0.39255E-03 11492   0.675E-01    0.560E-02
DAV:   6    -0.382639249729E+02   -0.85597E-05   -0.81528E-04 12720   0.309E-01    0.311E-02
DAV:   7    -0.382639212601E+02    0.37129E-05   -0.81712E-05 11308   0.151E-01    0.193E-02
DAV:   8    -0.382639200651E+02    0.11950E-05   -0.27488E-05 14676   0.733E-02    0.894E-03
DAV:   9    -0.382639207732E+02   -0.70812E-06   -0.90731E-06 12696   0.454E-02    0.373E-03
DAV:  10    -0.382639210036E+02   -0.23041E-06   -0.20260E-06 12988   0.158E-02    0.181E-03
DAV:  11    -0.382639211269E+02   -0.12328E-06   -0.46435E-07 12060   0.582E-03    0.120E-03
DAV:  12    -0.382639211830E+02   -0.56128E-07   -0.12813E-07 12992   0.393E-03    0.451E-04
DAV:  13    -0.382639212000E+02   -0.16969E-07   -0.23539E-08  8612   0.235E-03    0.244E-04
DAV:  14    -0.382639212052E+02   -0.51741E-08   -0.96903E-09  6248   0.126E-03
   2 F= -.38263921E+02 E0= -.38244329E+02  d E =0.200583E-02
 trial-energy change:    0.002006  1 .order    0.001694   -0.015733    0.019121
 step:   0.4382(harm=  0.4514)  dis= 0.00188  next Energy=   -38.269348 (dE=-0.342E-02)
 bond charge predicted
       N       E                     dE             d eps       ncg     rms          rms(c)
DAV:   1    -0.382967750296E+02   -0.32854E-01   -0.69284E-01 13632   0.103E+01    0.125E+00
DAV:   2    -0.382748815847E+02    0.21893E-01   -0.13872E-01 12140   0.599E+00    0.547E-01
DAV:   3    -0.382709150388E+02    0.39665E-02   -0.14685E-02 13440   0.160E+00    0.272E-01
DAV:   4    -0.382694023667E+02    0.15127E-02   -0.31464E-03 13832   0.897E-01    0.771E-02
DAV:   5    -0.382693270366E+02    0.75330E-04   -0.12955E-03 11576   0.433E-01    0.285E-02
DAV:   6    -0.382693311855E+02   -0.41488E-05   -0.26432E-04 12696   0.189E-01    0.164E-02
DAV:   7    -0.382693302638E+02    0.92163E-06   -0.31821E-05 11492   0.801E-02    0.984E-03
DAV:   8    -0.382693296081E+02    0.65580E-06   -0.98170E-06 14056   0.405E-02    0.461E-03
DAV:   9    -0.382693295684E+02    0.39664E-07   -0.31290E-06 11740   0.247E-02    0.214E-03
DAV:  10    -0.382693295077E+02    0.60667E-07   -0.72933E-07 13772   0.825E-03    0.954E-04
DAV:  11    -0.382693294859E+02    0.21794E-07   -0.18310E-07 11224   0.287E-03    0.673E-04
DAV:  12    -0.382693294472E+02    0.38695E-07   -0.26843E-08  8592   0.316E-03    0.211E-04
DAV:  13    -0.382693294369E+02    0.10335E-07   -0.10889E-08  6020   0.970E-04    0.114E-04
DAV:  14    -0.382693294361E+02    0.76352E-09   -0.35972E-09  5844   0.682E-04
   3 F= -.38269329E+02 E0= -.38249306E+02  d E =-.340240E-02
 curvature:  -0.23 expect dE=-0.177E-02 dE for cont linesearch -0.283E-07
 trial: gam= 0.50231 g(F)=  0.696E-02 g(S)=  0.896E-03 ort =-0.444E-04 (trialstep = 0.888E+00)
 search vector abs. value=  0.118E-01
 bond charge predicted
       N       E                     dE             d eps       ncg     rms          rms(c)
DAV:   1    -0.383000038044E+02   -0.30674E-01   -0.13474E+00 11568   0.106E+01    0.130E+00
DAV:   2    -0.382792632543E+02    0.20741E-01   -0.16158E-01 11848   0.603E+00    0.606E-01
DAV:   3    -0.382749383625E+02    0.43249E-02   -0.16385E-02 14024   0.142E+00    0.299E-01
DAV:   4    -0.382732283191E+02    0.17100E-02   -0.29203E-03 14184   0.809E-01    0.711E-02
DAV:   5    -0.382732168218E+02    0.11497E-04   -0.10890E-03 10736   0.336E-01    0.288E-02
DAV:   6    -0.382732175816E+02   -0.75982E-06   -0.17264E-04 12308   0.138E-01    0.161E-02
DAV:   7    -0.382732165038E+02    0.10778E-05   -0.17129E-05 12400   0.102E-01    0.775E-03
DAV:   8    -0.382732172758E+02   -0.77193E-06   -0.87852E-06 14580   0.273E-02    0.345E-03
DAV:   9    -0.382732172833E+02   -0.75479E-08   -0.20741E-06 12460   0.234E-02    0.207E-03
DAV:  10    -0.382732173792E+02   -0.95854E-07   -0.42559E-07 14932   0.106E-02    0.921E-04
DAV:  11    -0.382732174106E+02   -0.31407E-07   -0.75114E-08 12396   0.351E-03    0.447E-04
DAV:  12    -0.382732174209E+02   -0.10332E-07   -0.26433E-08  8012   0.224E-03    0.172E-04
DAV:  13    -0.382732174265E+02   -0.55566E-08   -0.83975E-09  6016   0.717E-04
   4 F= -.38273217E+02 E0= -.38253262E+02  d E =-.388799E-02
 trial-energy change:   -0.003888  1 .order   -0.003875   -0.006955   -0.000794
 step:   1.0004(harm=  1.0020)  dis= 0.00639  next Energy=   -38.273268 (dE=-0.394E-02)
 bond charge predicted
       N       E                     dE             d eps       ncg     rms          rms(c)
DAV:   1    -0.382736984423E+02   -0.48102E-03   -0.21662E-02 11568   0.133E+00    0.165E-01
DAV:   2    -0.382733656301E+02    0.33281E-03   -0.25904E-03 11936   0.770E-01    0.765E-02
DAV:   3    -0.382732951212E+02    0.70509E-04   -0.26200E-04 13832   0.181E-01    0.378E-02
DAV:   4    -0.382732671690E+02    0.27952E-04   -0.47079E-05 14496   0.101E-01    0.902E-03
DAV:   5    -0.382732668069E+02    0.36208E-06   -0.16560E-05 10740   0.412E-02    0.362E-03
DAV:   6    -0.382732667758E+02    0.31161E-07   -0.26118E-06 12048   0.163E-02    0.204E-03
DAV:   7    -0.382732667917E+02   -0.15916E-07   -0.22749E-07 12332   0.130E-02    0.978E-04
DAV:   8    -0.382732668320E+02   -0.40320E-07   -0.13328E-07 13808   0.300E-03    0.408E-04
DAV:   9    -0.382732668332E+02   -0.11964E-08   -0.20112E-08  7148   0.271E-03
   5 F= -.38273267E+02 E0= -.38253320E+02  d E =-.393740E-02
 curvature:  -0.75 expect dE=-0.183E-02 dE for cont linesearch -0.521E-08
 trial: gam= 0.30872 g(F)=  0.171E-02 g(S)=  0.716E-03 ort = 0.903E-05 (trialstep = 0.910E+00)
 search vector abs. value=  0.356E-02
 bond charge predicted
       N       E                     dE             d eps       ncg     rms          rms(c)
DAV:   1    -0.382769329546E+02   -0.36661E-02   -0.44243E-01 10316   0.386E+00    0.398E-01
DAV:   2    -0.382757399309E+02    0.11930E-02   -0.15109E-02 12536   0.133E+00    0.234E-01
DAV:   3    -0.382748398767E+02    0.90005E-03   -0.19298E-03 12840   0.641E-01    0.818E-02
DAV:   4    -0.382747478043E+02    0.92072E-04   -0.56801E-04 11252   0.396E-01    0.192E-02
DAV:   5    -0.382747567018E+02   -0.88974E-05   -0.15473E-04 11464   0.139E-01    0.114E-02
DAV:   6    -0.382747568266E+02   -0.12480E-06   -0.16307E-05 12252   0.603E-02    0.625E-03
DAV:   7    -0.382747568580E+02   -0.31440E-07   -0.34587E-06 14792   0.302E-02    0.260E-03
DAV:   8    -0.382747568520E+02    0.59827E-08   -0.74256E-07 13196   0.168E-02    0.105E-03
DAV:   9    -0.382747568692E+02   -0.17180E-07   -0.26448E-07 12568   0.587E-03    0.682E-04
DAV:  10    -0.382747568722E+02   -0.29950E-08   -0.38630E-08  9632   0.187E-03
   6 F= -.38274757E+02 E0= -.38255263E+02  d E =-.149004E-02
 trial-energy change:   -0.001490  1 .order   -0.001482   -0.002214   -0.000751
 step:   1.3557(harm=  1.3771)  dis= 0.00757  next Energy=   -38.274941 (dE=-0.167E-02)
 bond charge predicted
       N       E                     dE             d eps       ncg     rms          rms(c)
DAV:   1    -0.382754669294E+02   -0.71006E-03   -0.10603E-01 10324   0.189E+00    0.195E-01
DAV:   2    -0.382751801234E+02    0.28681E-03   -0.36416E-03 12472   0.663E-01    0.115E-01
DAV:   3    -0.382749665534E+02    0.21357E-03   -0.47953E-04 12892   0.319E-01    0.401E-02
DAV:   4    -0.382749442737E+02    0.22280E-04   -0.13386E-04 11264   0.199E-01    0.953E-03
DAV:   5    -0.382749465589E+02   -0.22852E-05   -0.38864E-05 11472   0.746E-02    0.564E-03
DAV:   6    -0.382749466026E+02   -0.43713E-07   -0.41788E-06 12284   0.333E-02    0.311E-03
DAV:   7    -0.382749466113E+02   -0.86457E-08   -0.99496E-07 14188   0.143E-02    0.131E-03
DAV:   8    -0.382749466018E+02    0.94251E-08   -0.18556E-07 13488   0.770E-03    0.531E-04
DAV:   9    -0.382749466041E+02   -0.22292E-08   -0.67889E-08 11152   0.295E-03
   7 F= -.38274947E+02 E0= -.38255676E+02  d E =-.167977E-02
 curvature:  -1.01 expect dE=-0.353E-03 dE for cont linesearch -0.334E-06
 trial: gam= 0.13694 g(F)=  0.255E-03 g(S)=  0.957E-04 ort = 0.344E-04 (trialstep = 0.999E+00)
 search vector abs. value=  0.427E-03
 bond charge predicted
       N       E                     dE             d eps       ncg     rms          rms(c)
DAV:   1    -0.382753635911E+02   -0.41699E-03   -0.74670E-02 10140   0.168E+00    0.155E-01
DAV:   2    -0.382753161875E+02    0.47404E-04   -0.36737E-03 11680   0.663E-01    0.888E-02
DAV:   3    -0.382752224047E+02    0.93783E-04   -0.30977E-04 12656   0.265E-01    0.412E-02
DAV:   4    -0.382751956207E+02    0.26784E-04   -0.10042E-04 12020   0.166E-01    0.798E-03
DAV:   5    -0.382751976480E+02   -0.20273E-05   -0.32736E-05 10776   0.782E-02    0.457E-03
DAV:   6    -0.382751979921E+02   -0.34414E-06   -0.62891E-06 11860   0.397E-02    0.306E-03
DAV:   7    -0.382751979905E+02    0.15934E-08   -0.12108E-06 13472   0.200E-02    0.129E-03
DAV:   8    -0.382751979823E+02    0.82437E-08   -0.36408E-07 13256   0.680E-03    0.490E-04
DAV:   9    -0.382751979831E+02   -0.77580E-09   -0.52574E-08  9096   0.204E-03
   8 F= -.38275198E+02 E0= -.38256030E+02  d E =-.251379E-03
 trial-energy change:   -0.000251  1 .order   -0.000250   -0.000355   -0.000145
 step:   1.6532(harm=  1.6902)  dis= 0.00194  next Energy=   -38.275246 (dE=-0.299E-03)
 bond charge predicted
       N       E                     dE             d eps       ncg     rms          rms(c)
DAV:   1    -0.382753190878E+02   -0.12111E-03   -0.31980E-02 10148   0.110E+00    0.101E-01
DAV:   2    -0.382752986261E+02    0.20462E-04   -0.15756E-03 11680   0.435E-01    0.582E-02
DAV:   3    -0.382752587132E+02    0.39913E-04   -0.13272E-04 12528   0.175E-01    0.270E-02
DAV:   4    -0.382752473850E+02    0.11328E-04   -0.43769E-05 12020   0.110E-01    0.522E-03
DAV:   5    -0.382752482743E+02   -0.88933E-06   -0.14214E-05 10756   0.518E-02    0.299E-03
DAV:   6    -0.382752484334E+02   -0.15911E-06   -0.27754E-06 11856   0.262E-02    0.201E-03
DAV:   7    -0.382752484292E+02    0.41850E-08   -0.53429E-07 13364   0.133E-02    0.846E-04
DAV:   8    -0.382752484195E+02    0.97657E-08   -0.16329E-07 12532   0.454E-03    0.322E-04
DAV:   9    -0.382752484186E+02    0.88585E-09   -0.21981E-08  7628   0.133E-03
   9 F= -.38275248E+02 E0= -.38256147E+02  d E =-.301815E-03
 curvature:  -1.01 expect dE=-0.391E-03 dE for cont linesearch -0.124E-06
 trial: gam= 1.09755 g(F)=  0.270E-03 g(S)=  0.117E-03 ort = 0.723E-05 (trialstep = 0.526E+00)
 search vector abs. value=  0.916E-03
 bond charge predicted
       N       E                     dE             d eps       ncg     rms          rms(c)
DAV:   1    -0.382754707939E+02   -0.22237E-03   -0.43713E-02 10292   0.136E+00    0.127E-01
DAV:   2    -0.382754395814E+02    0.31213E-04   -0.25787E-03 11796   0.614E-01    0.685E-02
DAV:   3    -0.382753932284E+02    0.46353E-04   -0.23080E-04 11920   0.198E-01    0.356E-02
DAV:   4    -0.382753713915E+02    0.21837E-04   -0.58014E-05 12660   0.139E-01    0.797E-03
DAV:   5    -0.382753719229E+02   -0.53137E-06   -0.21657E-05 12464   0.664E-02    0.320E-03
DAV:   6    -0.382753722114E+02   -0.28854E-06   -0.44072E-06 12044   0.223E-02    0.232E-03
DAV:   7    -0.382753722153E+02   -0.38776E-08   -0.35710E-07 14052   0.145E-02    0.120E-03
DAV:   8    -0.382753722502E+02   -0.34937E-07   -0.13627E-07 12660   0.472E-03    0.375E-04
DAV:   9    -0.382753722564E+02   -0.61914E-08   -0.26555E-08  7292   0.267E-03
  10 F= -.38275372E+02 E0= -.38256363E+02  d E =-.123838E-03
 trial-energy change:   -0.000124  1 .order   -0.000124   -0.000208   -0.000040
 step:   0.6525(harm=  0.6525)  dis= 0.00124  next Energy=   -38.275377 (dE=-0.129E-03)
 bond charge predicted
       N       E                     dE             d eps       ncg     rms          rms(c)
DAV:   1    -0.382753814146E+02   -0.91644E-05   -0.25066E-03 10300   0.326E-01    0.304E-02
DAV:   2    -0.382753796642E+02    0.17504E-05   -0.14762E-04 11804   0.148E-01    0.164E-02
DAV:   3    -0.382753768806E+02    0.27836E-05   -0.13417E-05 11916   0.485E-02    0.853E-03
DAV:   4    -0.382753755386E+02    0.13420E-05   -0.33750E-06 12668   0.340E-02    0.191E-03
DAV:   5    -0.382753755661E+02   -0.27488E-07   -0.12750E-06 12528   0.160E-02    0.769E-04
DAV:   6    -0.382753755791E+02   -0.13014E-07   -0.25825E-07 11980   0.537E-03    0.558E-04
DAV:   7    -0.382753755839E+02   -0.48017E-08   -0.16071E-08  6476   0.349E-03
  11 F= -.38275376E+02 E0= -.38256388E+02  d E =-.127165E-03
 curvature:  -0.76 expect dE=-0.292E-03 dE for cont linesearch -0.641E-08
 trial: gam= 1.02372 g(F)=  0.261E-03 g(S)=  0.125E-03 ort =-0.278E-05 (trialstep = 0.377E+00)
 search vector abs. value=  0.134E-02
 bond charge predicted
       N       E                     dE             d eps       ncg     rms          rms(c)
DAV:   1    -0.382756071552E+02   -0.23158E-03   -0.31872E-02 10284   0.106E+00    0.100E-01
DAV:   2    -0.382755477210E+02    0.59434E-04   -0.11530E-03 11976   0.382E-01    0.583E-02
DAV:   3    -0.382755049247E+02    0.42796E-04   -0.10626E-04 14164   0.151E-01    0.250E-02
DAV:   4    -0.382754949168E+02    0.10008E-04   -0.32870E-05 11984   0.833E-02    0.494E-03
DAV:   5    -0.382754952986E+02   -0.38174E-06   -0.98938E-06 10784   0.379E-02    0.261E-03
DAV:   6    -0.382754953427E+02   -0.44124E-07   -0.16895E-06 11872   0.217E-02    0.172E-03
DAV:   7    -0.382754953578E+02   -0.15084E-07   -0.27426E-07 11844   0.104E-02    0.824E-04
DAV:   8    -0.382754953782E+02   -0.20435E-07   -0.75050E-08 10424   0.443E-03    0.344E-04
DAV:   9    -0.382754953871E+02   -0.88830E-08   -0.19733E-08  6856   0.138E-03
  12 F= -.38275495E+02 E0= -.38256510E+02  d E =-.119803E-03
 trial-energy change:   -0.000120  1 .order   -0.000119   -0.000144   -0.000094
 step:   1.0034(harm=  1.0903)  dis= 0.00284  next Energy=   -38.275576 (dE=-0.200E-03)
 bond charge predicted
       N       E                     dE             d eps       ncg     rms          rms(c)
DAV:   1    -0.382758869452E+02   -0.39157E-03   -0.87869E-02 10284   0.177E+00    0.167E-01
DAV:   2    -0.382757235728E+02    0.16337E-03   -0.31838E-03 11944   0.635E-01    0.968E-02
DAV:   3    -0.382756066649E+02    0.11691E-03   -0.29518E-04 14140   0.250E-01    0.416E-02
DAV:   4    -0.382755792723E+02    0.27393E-04   -0.90375E-05 11968   0.138E-01    0.820E-03
DAV:   5    -0.382755803693E+02   -0.10970E-05   -0.27191E-05 10784   0.625E-02    0.433E-03
DAV:   6    -0.382755805226E+02   -0.15326E-06   -0.46287E-06 11876   0.359E-02    0.286E-03
DAV:   7    -0.382755805519E+02   -0.29320E-07   -0.74727E-07 11832   0.172E-02    0.137E-03
DAV:   8    -0.382755805916E+02   -0.39715E-07   -0.21173E-07 12492   0.734E-03    0.566E-04
DAV:   9    -0.382755806072E+02   -0.15621E-07   -0.54809E-08  9024   0.224E-03    0.238E-04
DAV:  10    -0.382755806100E+02   -0.28190E-08   -0.75790E-09  5976   0.119E-03
  13 F= -.38275581E+02 E0= -.38256598E+02  d E =-.205026E-03
 curvature:  -1.88 expect dE=-0.115E-03 dE for cont linesearch -0.124E-05
 ZBRENT: extrapolating
 opt :   1.0877  next Energy=   -38.275582 (dE=-0.206E-03)
 bond charge predicted
       N       E                     dE             d eps       ncg     rms          rms(c)
DAV:   1    -0.382755875301E+02   -0.69229E-05   -0.15890E-03 10284   0.237E-01    0.224E-02
DAV:   2    -0.382755846463E+02    0.28838E-05   -0.57258E-05 12016   0.851E-02    0.130E-02
DAV:   3    -0.382755823991E+02    0.22472E-05   -0.52329E-06 14012   0.335E-02    0.558E-03
DAV:   4    -0.382755818668E+02    0.53231E-06   -0.16375E-06 12036   0.185E-02    0.109E-03
DAV:   5    -0.382755818797E+02   -0.12865E-07   -0.49034E-07 10776   0.839E-03    0.584E-04
DAV:   6    -0.382755818765E+02    0.31946E-08   -0.82022E-08 10896   0.479E-03
  14 F= -.38275582E+02 E0= -.38256600E+02  d E =-.206293E-03
 curvature:  -1.90 expect dE=-0.127E-03 dE for cont linesearch -0.182E-08
 trial: gam= 0.12773 g(F)=  0.572E-04 g(S)=  0.943E-05 ort =-0.113E-05 (trialstep = 0.519E+00)
 search vector abs. value=  0.882E-04
 bond charge predicted
       N       E                     dE             d eps       ncg     rms          rms(c)
DAV:   1    -0.382756096076E+02   -0.27728E-04   -0.49199E-03 10140   0.408E-01    0.239E-02
DAV:   2    -0.382756135856E+02   -0.39780E-05   -0.14596E-04 11896   0.123E-01    0.145E-02
DAV:   3    -0.382756122246E+02    0.13610E-05   -0.10172E-05 12208   0.424E-02    0.729E-03
DAV:   4    -0.382756114835E+02    0.74113E-06   -0.25823E-06 13064   0.262E-02    0.153E-03
DAV:   5    -0.382756115708E+02   -0.87268E-07   -0.10093E-06 11096   0.124E-02    0.816E-04
DAV:   6    -0.382756115807E+02   -0.98985E-08   -0.13291E-07 11920   0.543E-03    0.485E-04
DAV:   7    -0.382756115759E+02    0.47403E-08   -0.21342E-08  7304   0.319E-03
  15 F= -.38275612E+02 E0= -.38256627E+02  d E =-.296994E-04
 trial-energy change:   -0.000030  1 .order   -0.000030   -0.000035   -0.000025
 step:   1.5032(harm=  1.7960)  dis= 0.00126  next Energy=   -38.275636 (dE=-0.541E-04)
 bond charge predicted
       N       E                     dE             d eps       ncg     rms          rms(c)
DAV:   1    -0.382756341745E+02   -0.22594E-04   -0.17670E-02 10140   0.773E-01    0.453E-02
DAV:   2    -0.382756484739E+02   -0.14299E-04   -0.52443E-04 11984   0.232E-01    0.275E-02
DAV:   3    -0.382756432574E+02    0.52165E-05   -0.36179E-05 12256   0.802E-02    0.138E-02
DAV:   4    -0.382756404506E+02    0.28069E-05   -0.91756E-06 13120   0.491E-02    0.289E-03
DAV:   5    -0.382756407078E+02   -0.25721E-06   -0.35717E-06 11024   0.230E-02    0.154E-03
DAV:   6    -0.382756407327E+02   -0.24958E-07   -0.45878E-07 12852   0.102E-02    0.915E-04
DAV:   7    -0.382756407215E+02    0.11183E-07   -0.79587E-08 10496   0.592E-03    0.522E-04
DAV:   8    -0.382756407143E+02    0.72050E-08   -0.28345E-08  7600   0.210E-03
  16 F= -.38275641E+02 E0= -.38256651E+02  d E =-.588379E-04
 curvature:  -1.13 expect dE=-0.538E-04 dE for cont linesearch -0.197E-05
 ZBRENT: extrapolating
 opt :   1.8538  next Energy=   -38.275643 (dE=-0.610E-04)
 bond charge predicted
       N       E                     dE             d eps       ncg     rms          rms(c)
DAV:   1    -0.382756420130E+02   -0.12915E-05   -0.22449E-03 10140   0.276E-01    0.161E-02
DAV:   2    -0.382756437910E+02   -0.17780E-05   -0.66591E-05 11920   0.832E-02    0.979E-03
DAV:   3    -0.382756431996E+02    0.59142E-06   -0.46506E-06 12152   0.288E-02    0.493E-03
DAV:   4    -0.382756428783E+02    0.32130E-06   -0.11895E-06 13152   0.178E-02    0.103E-03
DAV:   5    -0.382756429241E+02   -0.45809E-07   -0.46348E-07 11064   0.845E-03    0.556E-04
DAV:   6    -0.382756429300E+02   -0.59149E-08   -0.59460E-08  9580   0.369E-03
  17 F= -.38275643E+02 E0= -.38256652E+02  d E =-.610535E-04
 curvature:  -1.25 expect dE=-0.881E-04 dE for cont linesearch -0.651E-08
 trial: gam= 1.07495 g(F)=  0.530E-04 g(S)=  0.177E-04 ort =-0.679E-06 (trialstep = 0.405E+00)
 search vector abs. value=  0.171E-03
 bond charge predicted
       N       E                     dE             d eps       ncg     rms          rms(c)
DAV:   1    -0.382756547625E+02   -0.11838E-04   -0.58339E-03 10012   0.450E-01    0.245E-02
DAV:   2    -0.382756643485E+02   -0.95860E-05   -0.19599E-04 11944   0.157E-01    0.133E-02
DAV:   3    -0.382756631543E+02    0.11942E-05   -0.18909E-05 11744   0.576E-02    0.792E-03
DAV:   4    -0.382756620582E+02    0.10960E-05   -0.35167E-06 12784   0.301E-02    0.219E-03
DAV:   5    -0.382756620842E+02   -0.25959E-07   -0.12437E-06 13792   0.163E-02    0.924E-04
DAV:   6    -0.382756620946E+02   -0.10410E-07   -0.25938E-07 11604   0.579E-03    0.630E-04
DAV:   7    -0.382756620985E+02   -0.39249E-08   -0.18227E-08  6440   0.358E-03
  18 F= -.38275662E+02 E0= -.38256686E+02  d E =-.191685E-04
 trial-energy change:   -0.000019  1 .order   -0.000018   -0.000028   -0.000007
 step:   0.5010(harm=  0.5461)  dis= 0.00070  next Energy=   -38.275663 (dE=-0.201E-04)
 bond charge predicted
       N       E                     dE             d eps       ncg     rms          rms(c)
DAV:   1    -0.382756629509E+02   -0.85628E-06   -0.32872E-04 10032   0.107E-01    0.579E-03
DAV:   2    -0.382756634919E+02   -0.54106E-06   -0.10992E-05 11924   0.373E-02    0.318E-03
DAV:   3    -0.382756633957E+02    0.96246E-07   -0.10859E-06 11740   0.138E-02    0.188E-03
DAV:   4    -0.382756633127E+02    0.83040E-07   -0.20356E-07 12940   0.723E-03    0.520E-04
DAV:   5    -0.382756633117E+02    0.95542E-09   -0.65015E-08 10608   0.388E-03
  19 F= -.38275663E+02 E0= -.38256691E+02  d E =-.203817E-04
 curvature:  -0.60 expect dE=-0.293E-04 dE for cont linesearch -0.123E-06
 trial: gam= 0.60678 g(F)=  0.367E-04 g(S)=  0.121E-04 ort = 0.593E-05 (trialstep = 0.424E+00)
 search vector abs. value=  0.119E-03
 bond charge predicted
       N       E                     dE             d eps       ncg     rms          rms(c)
DAV:   1    -0.382756779837E+02   -0.14671E-04   -0.45054E-03 10040   0.377E-01    0.185E-02
DAV:   2    -0.382756830466E+02   -0.50629E-05   -0.10844E-04 11772   0.941E-02    0.104E-02
DAV:   3    -0.382756815444E+02    0.15022E-05   -0.84430E-06 12140   0.471E-02    0.543E-03
DAV:   4    -0.382756811289E+02    0.41554E-06   -0.27592E-06 12280   0.333E-02    0.151E-03
DAV:   5    -0.382756811803E+02   -0.51436E-07   -0.10582E-06 12676   0.123E-02    0.756E-04
DAV:   6    -0.382756811873E+02   -0.69890E-08   -0.14696E-07 11184   0.463E-03    0.496E-04
DAV:   7    -0.382756811820E+02    0.52942E-08   -0.17682E-08  6468   0.322E-03
  20 F= -.38275681E+02 E0= -.38256703E+02  d E =-.178703E-04
 trial-energy change:   -0.000018  1 .order   -0.000019   -0.000022   -0.000016
 step:   1.4793(harm=  1.4793)  dis= 0.00189  next Energy=   -38.275702 (dE=-0.388E-04)
 bond charge predicted
       N       E                     dE             d eps       ncg     rms          rms(c)
DAV:   1    -0.382756823355E+02   -0.11482E-05   -0.27857E-02 10040   0.937E-01    0.460E-02
DAV:   2    -0.382757134407E+02   -0.31105E-04   -0.66873E-04 11788   0.232E-01    0.260E-02
DAV:   3    -0.382757038285E+02    0.96122E-05   -0.51412E-05 12136   0.114E-01    0.135E-02
DAV:   4    -0.382757011584E+02    0.26701E-05   -0.16940E-05 12304   0.821E-02    0.376E-03
DAV:   5    -0.382757015146E+02   -0.35628E-06   -0.64488E-06 12624   0.307E-02    0.188E-03
DAV:   6    -0.382757015508E+02   -0.36153E-07   -0.91739E-07 11912   0.116E-02    0.124E-03
DAV:   7    -0.382757015371E+02    0.13724E-07   -0.13005E-07 12420   0.806E-03    0.486E-04
DAV:   8    -0.382757015310E+02    0.60609E-08   -0.48773E-08  8968   0.276E-03
  21 F= -.38275702E+02 E0= -.38256708E+02  d E =-.382193E-04
 curvature:  -1.68 expect dE=-0.404E-04 dE for cont linesearch -0.113E-07
 trial: gam= 0.70798 g(F)=  0.221E-04 g(S)=  0.190E-05 ort = 0.895E-06 (trialstep = 0.635E+00)
 search vector abs. value=  0.850E-04
 bond charge predicted
       N       E                     dE             d eps       ncg     rms          rms(c)
DAV:   1    -0.382757095119E+02   -0.79748E-05   -0.72317E-03 10040   0.467E-01    0.203E-02
DAV:   2    -0.382757164056E+02   -0.68938E-05   -0.13410E-04 12164   0.902E-02    0.122E-02
DAV:   3    -0.382757140786E+02    0.23270E-05   -0.66979E-06 13604   0.328E-02    0.548E-03
DAV:   4    -0.382757136767E+02    0.40196E-06   -0.26650E-06 11416   0.176E-02    0.160E-03
DAV:   5    -0.382757137261E+02   -0.49474E-07   -0.59547E-07 10836   0.782E-03    0.773E-04
DAV:   6    -0.382757137256E+02    0.56525E-09   -0.50708E-08 11356   0.265E-03
  22 F= -.38275714E+02 E0= -.38256738E+02  d E =-.121946E-04
 trial-energy change:   -0.000012  1 .order   -0.000012   -0.000016   -0.000008
 step:   0.9846(harm=  1.2221)  dis= 0.00117  next Energy=   -38.275716 (dE=-0.144E-04)
 bond charge predicted
       N       E                     dE             d eps       ncg     rms          rms(c)
DAV:   1    -0.382757154078E+02   -0.16816E-05   -0.21892E-03 10040   0.257E-01    0.112E-02
DAV:   2    -0.382757175148E+02   -0.21070E-05   -0.41045E-05 12148   0.503E-02    0.676E-03
DAV:   3    -0.382757168189E+02    0.69596E-06   -0.20778E-06 13660   0.209E-02    0.308E-03
DAV:   4    -0.382757166845E+02    0.13431E-06   -0.83056E-07 11536   0.107E-02    0.884E-04
DAV:   5    -0.382757167068E+02   -0.22253E-07   -0.19398E-07 10800   0.441E-03    0.426E-04
DAV:   6    -0.382757167066E+02    0.21782E-09   -0.14110E-08  6236   0.179E-03
  23 F= -.38275717E+02 E0= -.38256751E+02  d E =-.151756E-04
 curvature:  -1.76 expect dE=-0.481E-04 dE for cont linesearch -0.525E-06
 trial: gam= 0.90829 g(F)=  0.213E-04 g(S)=  0.603E-05 ort = 0.503E-05 (trialstep = 0.562E+00)
 search vector abs. value=  0.107E-03
 bond charge predicted
       N       E                     dE             d eps       ncg     rms          rms(c)
DAV:   1    -0.382757295788E+02   -0.12872E-04   -0.68894E-03 10276   0.510E-01    0.348E-02
DAV:   2    -0.382757308453E+02   -0.12665E-05   -0.26784E-04 11520   0.200E-01    0.160E-02
DAV:   3    -0.382757293815E+02    0.14638E-05   -0.22761E-05 12956   0.657E-02    0.839E-03
DAV:   4    -0.382757283339E+02    0.10476E-05   -0.42339E-06 13288   0.357E-02    0.253E-03
DAV:   5    -0.382757283720E+02   -0.38075E-07   -0.16292E-06 12464   0.174E-02    0.849E-04
DAV:   6    -0.382757284043E+02   -0.32281E-07   -0.33600E-07 11600   0.667E-03    0.606E-04
DAV:   7    -0.382757283978E+02    0.64761E-08   -0.27262E-08  7328   0.387E-03
  24 F= -.38275728E+02 E0= -.38256768E+02  d E =-.116912E-04
 trial-energy change:   -0.000012  1 .order   -0.000011   -0.000018   -0.000005
 step:   0.7419(harm=  0.7723)  dis= 0.00092  next Energy=   -38.275729 (dE=-0.125E-04)
 bond charge predicted
       N       E                     dE             d eps       ncg     rms          rms(c)
DAV:   1    -0.382757295298E+02   -0.11255E-05   -0.70531E-04 10288   0.163E-01    0.111E-02
DAV:   2    -0.382757296192E+02   -0.89464E-07   -0.27307E-05 11480   0.638E-02    0.513E-03
DAV:   3    -0.382757295202E+02    0.99048E-07   -0.23411E-06 12996   0.210E-02    0.268E-03
DAV:   4    -0.382757294404E+02    0.79834E-07   -0.43466E-07 13328   0.114E-02    0.812E-04
DAV:   5    -0.382757294534E+02   -0.12995E-07   -0.16676E-07 11956   0.557E-03    0.272E-04
DAV:   6    -0.382757294602E+02   -0.68385E-08   -0.32752E-08  7812   0.217E-03
  25 F= -.38275729E+02 E0= -.38256771E+02  d E =-.127536E-04
 curvature:  -1.26 expect dE=-0.177E-04 dE for cont linesearch -0.512E-07
 trial: gam= 0.71390 g(F)=  0.117E-04 g(S)=  0.231E-05 ort = 0.208E-05 (trialstep = 0.598E+00)
 search vector abs. value=  0.713E-04
 bond charge predicted
       N       E                     dE             d eps       ncg     rms          rms(c)
DAV:   1    -0.382757312300E+02   -0.17767E-05   -0.50798E-03 10212   0.397E-01    0.185E-02
DAV:   2    -0.382757369148E+02   -0.56848E-05   -0.10402E-04 12524   0.838E-02    0.111E-02
DAV:   3    -0.382757355221E+02    0.13927E-05   -0.65172E-06 13604   0.242E-02    0.562E-03
DAV:   4    -0.382757350355E+02    0.48661E-06   -0.17033E-06 12008   0.154E-02    0.136E-03
DAV:   5    -0.382757350793E+02   -0.43796E-07   -0.55970E-07 10880   0.957E-03    0.825E-04
DAV:   6    -0.382757350805E+02   -0.12510E-08   -0.82656E-08 10616   0.553E-03
  26 F= -.38275735E+02 E0= -.38256802E+02  d E =-.562034E-05
 trial-energy change:   -0.000006  1 .order   -0.000006   -0.000009   -0.000002
 step:   0.7575(harm=  0.7575)  dis= 0.00073  next Energy=   -38.275735 (dE=-0.587E-05)
 bond charge predicted
       N       E                     dE             d eps       ncg     rms          rms(c)
DAV:   1    -0.382757350889E+02   -0.95756E-08   -0.36137E-04 10212   0.106E-01    0.497E-03
DAV:   2    -0.382757354770E+02   -0.38814E-06   -0.74749E-06 12524   0.226E-02    0.297E-03
DAV:   3    -0.382757353895E+02    0.87484E-07   -0.49614E-07 13200   0.671E-03    0.154E-03
DAV:   4    -0.382757353440E+02    0.45517E-07   -0.12666E-07 11984   0.533E-03    0.381E-04
DAV:   5    -0.382757353504E+02   -0.63960E-08   -0.41998E-08  9552   0.259E-03
  27 F= -.38275735E+02 E0= -.38256809E+02  d E =-.589020E-05
 curvature:  -1.74 expect dE=-0.124E-04 dE for cont linesearch -0.112E-08
 trial: gam= 0.50857 g(F)=  0.517E-05 g(S)=  0.194E-05 ort = 0.214E-06 (trialstep = 0.630E+00)
 search vector abs. value=  0.258E-04
 bond charge predicted
       N       E                     dE             d eps       ncg     rms          rms(c)
DAV:   1    -0.382757391834E+02   -0.38394E-05   -0.18653E-03 10204   0.243E-01    0.171E-02
DAV:   2    -0.382757393544E+02   -0.17107E-06   -0.43642E-05 12732   0.619E-02    0.100E-02
DAV:   3    -0.382757374800E+02    0.18745E-05   -0.32326E-06 12888   0.250E-02    0.291E-03
DAV:   4    -0.382757374160E+02    0.64026E-07   -0.10871E-06 11396   0.140E-02    0.799E-04
DAV:   5    -0.382757374258E+02   -0.98926E-08   -0.25789E-07 11384   0.717E-03    0.585E-04
DAV:   6    -0.382757374228E+02    0.30773E-08   -0.33268E-08  9236   0.419E-03
  28 F= -.38275737E+02 E0= -.38256823E+02  d E =-.207237E-05
 trial-energy change:   -0.000002  1 .order   -0.000004   -0.000005   -0.000003
 step:   1.5635(harm=  1.5635)  dis= 0.00076  next Energy=   -38.275741 (dE=-0.565E-05)
 bond charge predicted
       N       E                     dE             d eps       ncg     rms          rms(c)
DAV:   1    -0.382757435452E+02   -0.61194E-05   -0.40975E-03 10204   0.361E-01    0.254E-02
DAV:   2    -0.382757439356E+02   -0.39035E-06   -0.95853E-05 12708   0.913E-02    0.149E-02
DAV:   3    -0.382757397916E+02    0.41440E-05   -0.70859E-06 12988   0.358E-02    0.428E-03
DAV:   4    -0.382757396716E+02    0.12009E-06   -0.23735E-06 11392   0.196E-02    0.119E-03
DAV:   5    -0.382757396958E+02   -0.24207E-07   -0.53229E-07 11552   0.105E-02    0.864E-04
DAV:   6    -0.382757396905E+02    0.52723E-08   -0.69417E-08 10048   0.614E-03
  29 F= -.38275740E+02 E0= -.38256841E+02  d E =-.434009E-05
 curvature:  -2.79 expect dE=-0.170E-04 dE for cont linesearch -0.493E-08
 trial: gam= 0.72304 g(F)=  0.353E-05 g(S)=  0.258E-05 ort = 0.213E-06 (trialstep = 0.817E+00)
 search vector abs. value=  0.199E-04
 bond charge predicted
       N       E                     dE             d eps       ncg     rms          rms(c)
DAV:   1    -0.382757519845E+02   -0.12289E-04   -0.20987E-03 10196   0.264E-01    0.260E-02
DAV:   2    -0.382757480739E+02    0.39105E-05   -0.64546E-05 12444   0.892E-02    0.156E-02
DAV:   3    -0.382757433697E+02    0.47042E-05   -0.84787E-06 13276   0.437E-02    0.475E-03
DAV:   4    -0.382757431998E+02    0.16998E-06   -0.27980E-06 10940   0.197E-02    0.131E-03
DAV:   5    -0.382757432529E+02   -0.53133E-07   -0.57052E-07 11728   0.853E-03    0.828E-04
DAV:   6    -0.382757432526E+02    0.27603E-09   -0.65217E-08 10160   0.552E-03
  30 F= -.38275743E+02 E0= -.38256868E+02  d E =-.356212E-05
 trial-energy change:   -0.000004  1 .order   -0.000003   -0.000005   -0.000002
 step:   1.1378(harm=  1.2409)  dis= 0.00039  next Energy=   -38.275744 (dE=-0.391E-05)
 bond charge predicted
       N       E                     dE             d eps       ncg     rms          rms(c)
DAV:   1    -0.382757451324E+02   -0.18795E-05   -0.32500E-04 10196   0.104E-01    0.102E-02
DAV:   2    -0.382757445256E+02    0.60687E-06   -0.99975E-06 12444   0.350E-02    0.615E-03
DAV:   3    -0.382757437620E+02    0.76352E-06   -0.13063E-06 13184   0.170E-02    0.187E-03
DAV:   4    -0.382757437393E+02    0.22701E-07   -0.44074E-07 11000   0.779E-03    0.530E-04
DAV:   5    -0.382757437523E+02   -0.12976E-07   -0.87715E-08 10728   0.359E-03    0.333E-04
DAV:   6    -0.382757437525E+02   -0.17735E-09   -0.93289E-09  5812   0.228E-03
  31 F= -.38275744E+02 E0= -.38256877E+02  d E =-.406201E-05
 curvature:  -1.85 expect dE=-0.175E-04 dE for cont linesearch -0.375E-07
 trial: gam= 1.52044 g(F)=  0.746E-05 g(S)=  0.198E-05 ort = 0.635E-06 (trialstep = 0.306E+00)
 search vector abs. value=  0.574E-04
 bond charge predicted
       N       E                     dE             d eps       ncg     rms          rms(c)
DAV:   1    -0.382757502261E+02   -0.64738E-05   -0.83685E-04 10144   0.173E-01    0.178E-02
DAV:   2    -0.382757480535E+02    0.21726E-05   -0.32915E-05 11824   0.710E-02    0.102E-02
DAV:   3    -0.382757465518E+02    0.15017E-05   -0.41233E-06 13168   0.311E-02    0.435E-03
DAV:   4    -0.382757463082E+02    0.24355E-06   -0.13973E-06 11996   0.192E-02    0.929E-04
DAV:   5    -0.382757463254E+02   -0.17115E-07   -0.45048E-07 10760   0.917E-03    0.582E-04
DAV:   6    -0.382757463273E+02   -0.19622E-08   -0.69406E-08  9924   0.441E-03
  32 F= -.38275746E+02 E0= -.38256888E+02  d E =-.257482E-05
 trial-energy change:   -0.000003  1 .order   -0.000002   -0.000003   -0.000002
 step:   0.4993(harm=  0.6651)  dis= 0.00030  next Energy=   -38.275747 (dE=-0.315E-05)
 bond charge predicted
       N       E                     dE             d eps       ncg     rms          rms(c)
DAV:   1    -0.382757502331E+02   -0.39077E-05   -0.33677E-04 10144   0.110E-01    0.113E-02
DAV:   2    -0.382757493645E+02    0.86862E-06   -0.13382E-05 11824   0.457E-02    0.645E-03
DAV:   3    -0.382757487861E+02    0.57833E-06   -0.16710E-06 12972   0.206E-02    0.277E-03
DAV:   4    -0.382757486996E+02    0.86562E-07   -0.58045E-07 11972   0.127E-02    0.591E-04
DAV:   5    -0.382757487046E+02   -0.50013E-08   -0.18931E-07 10728   0.584E-03    0.371E-04
DAV:   6    -0.382757487053E+02   -0.68803E-09   -0.28204E-08  7972   0.289E-03
  33 F= -.38275749E+02 E0= -.38256895E+02  d E =-.495276E-05
 curvature:  -1.44 expect dE=-0.318E-05 dE for cont linesearch -0.213E-06
 ZBRENT: increasing intervall
 opt :   0.8869  next Energy=   -38.275749 (dE=-0.503E-05)
 bond charge predicted
       N       E                     dE             d eps       ncg     rms          rms(c)
DAV:   1    -0.382757551615E+02   -0.64569E-05   -0.13461E-03 10144   0.219E-01    0.226E-02
DAV:   2    -0.382757517072E+02    0.34543E-05   -0.53047E-05 11816   0.904E-02    0.129E-02
DAV:   3    -0.382757492557E+02    0.24515E-05   -0.66286E-06 13164   0.398E-02    0.551E-03
DAV:   4    -0.382757488510E+02    0.40471E-06   -0.22546E-06 12012   0.246E-02    0.118E-03
DAV:   5    -0.382757488824E+02   -0.31432E-07   -0.72925E-07 10780   0.116E-02    0.738E-04
DAV:   6    -0.382757488863E+02   -0.38781E-08   -0.11376E-07 11088   0.562E-03    0.429E-04
DAV:   7    -0.382757488863E+02   -0.32742E-10   -0.21917E-08  6888   0.306E-03
  34 F= -.38275749E+02 E0= -.38256905E+02  d E =-.513383E-05
 curvature:  -0.50 expect dE=-0.405E-05 dE for cont linesearch -0.631E-07
 trial: gam= 0.00000 g(F)=  0.691E-05 g(S)=  0.115E-05 ort =-0.268E-05 (trialstep = 0.422E+00)
 search vector abs. value=  0.806E-05
 bond charge predicted
       N       E                     dE             d eps       ncg     rms          rms(c)
DAV:   1    -0.382757500060E+02   -0.11197E-05   -0.28586E-04 10060   0.109E-01    0.866E-03
DAV:   2    -0.382757507926E+02   -0.78653E-06   -0.22687E-05 12088   0.554E-02    0.476E-03
DAV:   3    -0.382757505802E+02    0.21234E-06   -0.21677E-06 11712   0.167E-02    0.287E-03
DAV:   4    -0.382757503991E+02    0.18117E-06   -0.43310E-07 12808   0.110E-02    0.983E-04
DAV:   5    -0.382757503832E+02    0.15810E-07   -0.12994E-07 11116   0.627E-03    0.329E-04
DAV:   6    -0.382757503837E+02   -0.44020E-09   -0.30519E-08  7720   0.181E-03
  35 F= -.38275750E+02 E0= -.38256914E+02  d E =-.149736E-05
 trial-energy change:   -0.000001  1 .order   -0.000002   -0.000003    0.000000
 step:   0.3794(harm=  0.3794)  dis= 0.00009  next Energy=   -38.275750 (dE=-0.153E-05)
 bond charge predicted
       N       E                     dE             d eps       ncg     rms          rms(c)
DAV:   1    -0.382757503871E+02   -0.38440E-08   -0.28336E-06 10056   0.109E-02    0.861E-04
DAV:   2    -0.382757503956E+02   -0.84979E-08   -0.22590E-07 12080   0.510E-03    0.471E-04
DAV:   3    -0.382757503990E+02   -0.33647E-08   -0.18981E-08  6220   0.169E-03
  36 F= -.38275750E+02 E0= -.38256913E+02  d E =-.151262E-05
 curvature:  -0.19 expect dE=-0.576E-06 dE for cont linesearch -0.680E-10
 trial: gam= 0.37039 g(F)=  0.259E-05 g(S)=  0.443E-06 ort = 0.537E-07 (trialstep = 0.413E+00)
 search vector abs. value=  0.418E-05
 bond charge predicted
       N       E                     dE             d eps       ncg     rms          rms(c)
DAV:   1    -0.382757511445E+02   -0.74888E-06   -0.14575E-04  9964   0.681E-02    0.343E-03
DAV:   2    -0.382757514804E+02   -0.33591E-06   -0.47671E-06 12196   0.185E-02    0.206E-03
DAV:   3    -0.382757514575E+02    0.22896E-07   -0.25332E-07 12240   0.611E-03    0.117E-03
DAV:   4    -0.382757514393E+02    0.18194E-07   -0.60332E-08 11076   0.387E-03    0.296E-04
DAV:   5    -0.382757514407E+02   -0.14038E-08   -0.17899E-08  6084   0.223E-03
  37 F= -.38275751E+02 E0= -.38256914E+02  d E =-.104174E-05
 trial-energy change:   -0.000001  1 .order   -0.000001   -0.000001   -0.000001
 step:   1.1314(harm=  1.1314)  dis= 0.00023  next Energy=   -38.275752 (dE=-0.173E-05)
 bond charge predicted
       N       E                     dE             d eps       ncg     rms          rms(c)
DAV:   1    -0.382757513319E+02    0.10741E-06   -0.44028E-04  9968   0.118E-01    0.599E-03
DAV:   2    -0.382757523340E+02   -0.10021E-05   -0.14358E-05 12256   0.318E-02    0.357E-03
DAV:   3    -0.382757522481E+02    0.85860E-07   -0.76198E-07 12108   0.107E-02    0.203E-03
DAV:   4    -0.382757521906E+02    0.57532E-07   -0.19065E-07 12064   0.656E-03    0.489E-04
DAV:   5    -0.382757521951E+02   -0.45552E-08   -0.58793E-08 10784   0.373E-03
  38 F= -.38275752E+02 E0= -.38256913E+02  d E =-.179619E-05
 curvature:  -0.77 expect dE=-0.130E-05 dE for cont linesearch -0.914E-09
 trial: gam= 0.55141 g(F)=  0.956E-06 g(S)=  0.718E-06 ort = 0.703E-07 (trialstep = 0.557E+00)
 search vector abs. value=  0.302E-05
 bond charge predicted
       N       E                     dE             d eps       ncg     rms          rms(c)
DAV:   1    -0.382757533917E+02   -0.12012E-05   -0.17404E-04  9880   0.767E-02    0.631E-03
DAV:   2    -0.382757533514E+02    0.40312E-07   -0.61529E-06 11752   0.279E-02    0.348E-03
DAV:   3    -0.382757531605E+02    0.19094E-06   -0.57963E-07 12784   0.893E-03    0.164E-03
DAV:   4    -0.382757531009E+02    0.59608E-07   -0.12875E-07 12096   0.503E-03    0.278E-04
DAV:   5    -0.382757531028E+02   -0.18813E-08   -0.48540E-08 10100   0.206E-03
  39 F= -.38275753E+02 E0= -.38256916E+02  d E =-.907627E-06
 ZBRENT: can't locate minimum, use default step
 trial-energy change:   -0.000001  1 .order   -0.000001   -0.000001   -0.000001
 step:   2.2278(harm=  3.9034)  dis= 0.00031  next Energy=   -38.275756 (dE=-0.334E-05)
 bond charge predicted
       N       E                     dE             d eps       ncg     rms          rms(c)
DAV:   1    -0.382757576323E+02   -0.45314E-05   -0.15655E-03  9880   0.230E-01    0.190E-02
DAV:   2    -0.382757570870E+02    0.54523E-06   -0.55274E-05 11740   0.840E-02    0.104E-02
DAV:   3    -0.382757556156E+02    0.14715E-05   -0.51879E-06 12664   0.266E-02    0.494E-03
DAV:   4    -0.382757551420E+02    0.47355E-06   -0.11512E-06 12192   0.147E-02    0.824E-04
DAV:   5    -0.382757551708E+02   -0.28806E-07   -0.44780E-07 10696   0.583E-03    0.528E-04
DAV:   6    -0.382757551725E+02   -0.16498E-08   -0.20991E-08  6984   0.189E-03
  40 F= -.38275755E+02 E0= -.38256922E+02  d E =-.297734E-05
 curvature:  -2.58 expect dE=-0.374E-05 dE for cont linesearch -0.601E-06
 ZBRENT: increasing intervall
 opt :   5.5696  next Energy=   -38.275756 (dE=-0.368E-05)
 bond charge predicted
       N       E                     dE             d eps       ncg     rms          rms(c)
DAV:   1    -0.382757661454E+02   -0.10975E-04   -0.62626E-03  9880   0.460E-01    0.379E-02
DAV:   2    -0.382757637020E+02    0.24435E-05   -0.22045E-04 11732   0.168E-01    0.209E-02
DAV:   3    -0.382757580264E+02    0.56756E-05   -0.20695E-05 12664   0.531E-02    0.987E-03
DAV:   4    -0.382757561908E+02    0.18357E-05   -0.46162E-06 12188   0.295E-02    0.165E-03
DAV:   5    -0.382757563193E+02   -0.12852E-06   -0.17733E-06 10700   0.119E-02    0.106E-03
DAV:   6    -0.382757563222E+02   -0.29090E-08   -0.10980E-07 12592   0.421E-03    0.618E-04
DAV:   7    -0.382757563304E+02   -0.82628E-08   -0.13709E-08  6212   0.300E-03
  41 F= -.38275756E+02 E0= -.38256933E+02  d E =-.413530E-05
 curvature:  -3.02 expect dE=-0.212E-04 dE for cont linesearch -0.908E-07
 trial: gam= 4.53202 g(F)=  0.382E-05 g(S)=  0.322E-05 ort =-0.302E-06 (trialstep = 0.710E-01)
 search vector abs. value=  0.664E-04
 bond charge predicted
       N       E                     dE             d eps       ncg     rms          rms(c)
DAV:   1    -0.382757567750E+02   -0.45277E-06   -0.61308E-05  9996   0.438E-02    0.332E-03
DAV:   2    -0.382757567668E+02    0.81495E-08   -0.16845E-06 12924   0.128E-02    0.193E-03
DAV:   3    -0.382757567246E+02    0.42238E-07   -0.12892E-07 12612   0.453E-03    0.787E-04
DAV:   4    -0.382757567199E+02    0.47016E-08   -0.42138E-08 10036   0.253E-03
  42 F= -.38275757E+02 E0= -.38256935E+02  d E =-.389421E-06
 ZBRENT: can't locate minimum, use default step
 trial-energy change:   -0.000000  1 .order   -0.000000   -0.000000   -0.000000
 step:   0.2840(harm=  0.7013)  dis= 0.00021  next Energy=   -38.275758 (dE=-0.199E-05)
 bond charge predicted
       N       E                     dE             d eps       ncg     rms          rms(c)
DAV:   1    -0.382757582135E+02   -0.14889E-05   -0.55170E-04  9972   0.131E-01    0.994E-03
DAV:   2    -0.382757581848E+02    0.28679E-07   -0.15117E-05 12896   0.387E-02    0.577E-03
DAV:   3    -0.382757576979E+02    0.48695E-06   -0.11540E-06 12736   0.136E-02    0.236E-03
DAV:   4    -0.382757576275E+02    0.70337E-07   -0.37530E-07 11904   0.822E-03    0.474E-04
DAV:   5    -0.382757576287E+02   -0.11478E-08   -0.10973E-07 10708   0.457E-03    0.351E-04
DAV:   6    -0.382757576270E+02    0.16744E-08   -0.13267E-08  5800   0.218E-03
  43 F= -.38275758E+02 E0= -.38256939E+02  d E =-.129658E-05
 curvature:  -2.31 expect dE=-0.112E-04 dE for cont linesearch -0.371E-06
 ZBRENT: increasing intervall
 opt :   0.7101  next Energy=   -38.275758 (dE=-0.191E-05)
 bond charge predicted
       N       E                     dE             d eps       ncg     rms          rms(c)
DAV:   1    -0.382757608698E+02   -0.32411E-05   -0.22076E-03  9972   0.263E-01    0.199E-02
DAV:   2    -0.382757607493E+02    0.12044E-06   -0.60706E-05 12912   0.776E-02    0.116E-02
DAV:   3    -0.382757586763E+02    0.20730E-05   -0.46149E-06 12736   0.267E-02    0.472E-03
DAV:   4    -0.382757583723E+02    0.30396E-06   -0.15001E-06 11888   0.159E-02    0.940E-04
DAV:   5    -0.382757583889E+02   -0.16581E-07   -0.43201E-07 10892   0.899E-03    0.704E-04
DAV:   6    -0.382757583866E+02    0.22342E-08   -0.57207E-08 10056   0.437E-03
  44 F= -.38275758E+02 E0= -.38256947E+02  d E =-.205621E-05
 curvature:  -3.81 expect dE=-0.313E-04 dE for cont linesearch -0.176E-08
 trial: gam= 0.84343 g(F)=  0.765E-05 g(S)=  0.586E-06 ort =-0.175E-06 (trialstep = 0.199E+00)
 search vector abs. value=  0.552E-04
 bond charge predicted
       N       E                     dE             d eps       ncg     rms          rms(c)
DAV:   1    -0.382757600873E+02   -0.16984E-05   -0.41315E-04  9980   0.113E-01    0.804E-03
DAV:   2    -0.382757601481E+02   -0.60759E-07   -0.11808E-05 12172   0.352E-02    0.449E-03
DAV:   3    -0.382757599296E+02    0.21846E-06   -0.10287E-06 11824   0.131E-02    0.215E-03
DAV:   4    -0.382757598531E+02    0.76527E-07   -0.28034E-07 12104   0.885E-03    0.441E-04
DAV:   5    -0.382757598664E+02   -0.13265E-07   -0.10028E-07 10820   0.371E-03    0.278E-04
DAV:   6    -0.382757598642E+02    0.22019E-08   -0.11710E-08  6568   0.120E-03
  45 F= -.38275760E+02 E0= -.38256957E+02  d E =-.147751E-05
 ZBRENT: can't locate minimum, use default step
 trial-energy change:   -0.000001  1 .order   -0.000001   -0.000002   -0.000001
 step:   0.7953(harm=  1.4202)  dis= 0.00070  next Energy=   -38.275764 (dE=-0.574E-05)
 bond charge predicted
       N       E                     dE             d eps       ncg     rms          rms(c)
DAV:   1    -0.382757648771E+02   -0.50107E-05   -0.37161E-03  9976   0.338E-01    0.240E-02
DAV:   2    -0.382757657623E+02   -0.88524E-06   -0.10610E-04 12132   0.106E-01    0.134E-02
DAV:   3    -0.382757635055E+02    0.22569E-05   -0.92176E-06 11836   0.395E-02    0.642E-03
DAV:   4    -0.382757628186E+02    0.68689E-06   -0.25240E-06 12080   0.268E-02    0.132E-03
DAV:   5    -0.382757629036E+02   -0.84991E-07   -0.90676E-07 10948   0.113E-02    0.822E-04
DAV:   6    -0.382757629017E+02    0.18913E-08   -0.12068E-07 10792   0.375E-03    0.415E-04
DAV:   7    -0.382757628962E+02    0.54638E-08   -0.16780E-08  7080   0.327E-03
  46 F= -.38275763E+02 E0= -.38256988E+02  d E =-.450960E-05
 curvature:  -3.58 expect dE=-0.170E-04 dE for cont linesearch -0.746E-06
 ZBRENT: increasing intervall
 opt :   1.9882  next Energy=   -38.275763 (dE=-0.431E-05)
 bond charge predicted
       N       E                     dE             d eps       ncg     rms          rms(c)
DAV:   1    -0.382757706016E+02   -0.76999E-05   -0.14861E-02  9976   0.677E-01    0.480E-02
DAV:   2    -0.382757743581E+02   -0.37564E-05   -0.42406E-04 12132   0.210E-01    0.269E-02
DAV:   3    -0.382757650334E+02    0.93247E-05   -0.36731E-05 11860   0.781E-02    0.128E-02
DAV:   4    -0.382757622851E+02    0.27483E-05   -0.99855E-06 12080   0.533E-02    0.265E-03
DAV:   5    -0.382757625848E+02   -0.29971E-06   -0.35879E-06 10888   0.226E-02    0.165E-03
DAV:   6    -0.382757625923E+02   -0.75393E-08   -0.48983E-07 13236   0.743E-03    0.825E-04
DAV:   7    -0.382757625828E+02    0.95174E-08   -0.66577E-08  9584   0.616E-03
  47 F= -.38275763E+02 E0= -.38257042E+02  d E =-.419617E-05
 curvature:   0.97 expect dE= 0.308E-04 dE for cont linesearch  0.256E-06
 ZBRENT: bracketing found
 ZBRENT: interpolating
 opt :   1.3566  next Energy=   -38.275764 (dE=-0.546E-05)
 bond charge predicted
       N       E                     dE             d eps       ncg     rms          rms(c)
DAV:   1    -0.382757660439E+02   -0.34516E-05   -0.41647E-03  9976   0.358E-01    0.254E-02
DAV:   2    -0.382757673594E+02   -0.13155E-05   -0.11909E-04 12120   0.112E-01    0.142E-02
DAV:   3    -0.382757644987E+02    0.28607E-05   -0.10311E-05 11836   0.422E-02    0.679E-03
DAV:   4    -0.382757637214E+02    0.77736E-06   -0.28331E-06 12052   0.285E-02    0.139E-03
DAV:   5    -0.382757637778E+02   -0.56396E-07   -0.10162E-06 10952   0.119E-02    0.863E-04
DAV:   6    -0.382757637914E+02   -0.13665E-07   -0.13445E-07 11308   0.405E-03    0.441E-04
DAV:   7    -0.382757637981E+02   -0.66711E-08   -0.18412E-08  7136   0.353E-03
  48 F= -.38275764E+02 E0= -.38257014E+02  d E =-.541146E-05
 curvature:  -3.61 expect dE=-0.450E-04 dE for cont linesearch -0.101E-07
 trial: gam= 1.74351 g(F)=  0.116E-04 g(S)=  0.863E-06 ort = 0.392E-06 (trialstep = 0.131E+00)
 search vector abs. value=  0.182E-03
 bond charge predicted
       N       E                     dE             d eps       ncg     rms          rms(c)
DAV:   1    -0.382757654592E+02   -0.16678E-05   -0.59557E-04  9948   0.136E-01    0.947E-03
DAV:   2    -0.382757656778E+02   -0.21864E-06   -0.18342E-05 11796   0.457E-02    0.498E-03
DAV:   3    -0.382757654523E+02    0.22556E-06   -0.15077E-06 12092   0.137E-02    0.250E-03
DAV:   4    -0.382757653569E+02    0.95415E-07   -0.30336E-07 12584   0.767E-03    0.463E-04
DAV:   5    -0.382757653680E+02   -0.11096E-07   -0.11306E-07 10664   0.305E-03    0.283E-04
DAV:   6    -0.382757653679E+02    0.40018E-10   -0.61593E-09  5788   0.117E-03
  49 F= -.38275765E+02 E0= -.38257024E+02  d E =-.156982E-05
 ZBRENT: can't locate minimum, use default step
 trial-energy change:   -0.000002  1 .order   -0.000002   -0.000002   -0.000001
 step:   0.5231(harm=  0.9985)  dis= 0.00092  next Energy=   -38.275770 (dE=-0.658E-05)
 bond charge predicted
       N       E                     dE             d eps       ncg     rms          rms(c)
DAV:   1    -0.382757703353E+02   -0.49674E-05   -0.53651E-03  9948   0.409E-01    0.284E-02
DAV:   2    -0.382757725425E+02   -0.22072E-05   -0.16511E-04 11816   0.137E-01    0.150E-02
DAV:   3    -0.382757701442E+02    0.23983E-05   -0.13621E-05 12100   0.410E-02    0.751E-03
DAV:   4    -0.382757691790E+02    0.96519E-06   -0.27221E-06 12564   0.227E-02    0.140E-03
DAV:   5    -0.382757692583E+02   -0.79320E-07   -0.10270E-06 10664   0.926E-03    0.864E-04
DAV:   6    -0.382757692581E+02    0.17008E-09   -0.71352E-08 11328   0.385E-03
  50 F= -.38275769E+02 E0= -.38257053E+02  d E =-.546000E-05
 curvature:  -4.81 expect dE=-0.456E-04 dE for cont linesearch -0.172E-05
 ZBRENT: increasing intervall
 opt :   1.3077  next Energy=   -38.275773 (dE=-0.912E-05)
 bond charge predicted
       N       E                     dE             d eps       ncg     rms          rms(c)
DAV:   1    -0.382757797711E+02   -0.10513E-04   -0.21459E-02  9948   0.818E-01    0.569E-02
DAV:   2    -0.382757888813E+02   -0.91102E-05   -0.66094E-04 11824   0.274E-01    0.299E-02
DAV:   3    -0.382757789302E+02    0.99511E-05   -0.54501E-05 12112   0.819E-02    0.150E-02
DAV:   4    -0.382757749616E+02    0.39686E-05   -0.10881E-05 12572   0.454E-02    0.282E-03
DAV:   5    -0.382757752594E+02   -0.29778E-06   -0.41119E-06 10672   0.187E-02    0.173E-03
DAV:   6    -0.382757752612E+02   -0.17758E-08   -0.30003E-07 13500   0.802E-03    0.110E-03
DAV:   7    -0.382757752454E+02    0.15744E-07   -0.57216E-08 10200   0.518E-03    0.496E-04
DAV:   8    -0.382757752371E+02    0.83110E-08   -0.19393E-08  6648   0.198E-03
  51 F= -.38275775E+02 E0= -.38257108E+02  d E =-.114390E-04
 curvature: -10.23 expect dE=-0.254E-03 dE for cont linesearch -0.289E-06
 trial: gam= 1.84145 g(F)=  0.147E-04 g(S)=  0.101E-04 ort = 0.227E-05 (trialstep = 0.102E+00)
 search vector abs. value=  0.649E-03
 bond charge predicted
       N       E                     dE             d eps       ncg     rms          rms(c)
DAV:   1    -0.382757774620E+02   -0.22166E-05   -0.13308E-03  9892   0.193E-01    0.105E-02
DAV:   2    -0.382757788074E+02   -0.13454E-05   -0.29547E-05 12388   0.436E-02    0.623E-03
DAV:   3    -0.382757781624E+02    0.64500E-06   -0.13716E-06 12356   0.138E-02    0.239E-03
DAV:   4    -0.382757780831E+02    0.79313E-07   -0.49405E-07 12248   0.916E-03    0.578E-04
DAV:   5    -0.382757780991E+02   -0.16026E-07   -0.14316E-07 11520   0.507E-03    0.410E-04
DAV:   6    -0.382757780965E+02    0.26303E-08   -0.19595E-08  7084   0.186E-03
  52 F= -.38275778E+02 E0= -.38257124E+02  d E =-.285941E-05
 ZBRENT: can't locate minimum, use default step
 trial-energy change:   -0.000003  1 .order   -0.000003   -0.000003   -0.000003
 step:   0.4099(harm=  1.4255)  dis= 0.00141  next Energy=   -38.275796 (dE=-0.206E-04)
 bond charge predicted
       N       E                     dE             d eps       ncg     rms          rms(c)
DAV:   1    -0.382757796717E+02   -0.15725E-05   -0.11979E-02  9892   0.580E-01    0.315E-02
DAV:   2    -0.382757920572E+02   -0.12385E-04   -0.26599E-04 12344   0.131E-01    0.187E-02
DAV:   3    -0.382757862700E+02    0.57871E-05   -0.12400E-05 12304   0.415E-02    0.719E-03
DAV:   4    -0.382757856180E+02    0.65204E-06   -0.44113E-06 12228   0.275E-02    0.172E-03
DAV:   5    -0.382757857220E+02   -0.10399E-06   -0.12851E-06 11760   0.153E-02    0.122E-03
DAV:   6    -0.382757857202E+02    0.17471E-08   -0.18720E-07 11656   0.563E-03    0.593E-04
DAV:   7    -0.382757857225E+02   -0.22433E-08   -0.40457E-08  8564   0.210E-03
  53 F= -.38275786E+02 E0= -.38257171E+02  d E =-.104854E-04
 curvature:  -6.56 expect dE=-0.772E-04 dE for cont linesearch -0.520E-05
 ZBRENT: increasing intervall
 opt :   1.0246  next Energy=   -38.275797 (dE=-0.219E-04)
 bond charge predicted
       N       E                     dE             d eps       ncg     rms          rms(c)
DAV:   1    -0.382757722495E+02    0.13471E-04   -0.47901E-02  9892   0.116E+00    0.630E-02
DAV:   2    -0.382758220174E+02   -0.49768E-04   -0.10638E-03 12348   0.260E-01    0.374E-02
DAV:   3    -0.382757988321E+02    0.23185E-04   -0.48903E-05 12372   0.800E-02    0.144E-02
DAV:   4    -0.382757962856E+02    0.25465E-05   -0.17378E-05 12092   0.533E-02    0.343E-03
DAV:   5    -0.382757966396E+02   -0.35406E-06   -0.48714E-06 11540   0.307E-02    0.239E-03
DAV:   6    -0.382757966550E+02   -0.15329E-07   -0.78177E-07 12320   0.115E-02    0.118E-03
DAV:   7    -0.382757966688E+02   -0.13829E-07   -0.18435E-07 11868   0.408E-03    0.382E-04
DAV:   8    -0.382757966684E+02    0.38062E-09   -0.16711E-08  6280   0.308E-03
  54 F= -.38275797E+02 E0= -.38257260E+02  d E =-.214313E-04
 curvature: -14.33 expect dE=-0.138E-03 dE for cont linesearch -0.429E-05
 ZBRENT: increasing intervall
 opt :   2.2542  next Energy=   -38.275803 (dE=-0.278E-04)
 bond charge predicted
       N       E                     dE             d eps       ncg     rms          rms(c)
DAV:   1    -0.382757016223E+02    0.95046E-04   -0.19157E-01  9892   0.232E+00    0.126E-01
DAV:   2    -0.382759013992E+02   -0.19978E-03   -0.42592E-03 12364   0.520E-01    0.748E-02
DAV:   3    -0.382758087655E+02    0.92634E-04   -0.19499E-04 12352   0.162E-01    0.289E-02
DAV:   4    -0.382757985665E+02    0.10199E-04   -0.69402E-05 11980   0.106E-01    0.681E-03
DAV:   5    -0.382757998851E+02   -0.13186E-05   -0.19099E-05 11532   0.609E-02    0.465E-03
DAV:   6    -0.382757999967E+02   -0.11161E-06   -0.31439E-06 12384   0.240E-02    0.235E-03
DAV:   7    -0.382758000608E+02   -0.64026E-07   -0.81195E-07 13308   0.896E-03    0.780E-04
DAV:   8    -0.382758000609E+02   -0.90949E-10   -0.83211E-08 11008   0.614E-03
  55 F= -.38275800E+02 E0= -.38257420E+02  d E =-.248237E-04
 curvature: -21.34 expect dE=-0.140E-02 dE for cont linesearch -0.921E-06
 ZBRENT: bracketing found
 ZBRENT: interpolating
 opt :   1.9160  next Energy=   -38.275801 (dE=-0.257E-04)
 bond charge predicted
       N       E                     dE             d eps       ncg     rms          rms(c)
DAV:   1    -0.382757934404E+02    0.66204E-05   -0.14506E-02  9892   0.638E-01    0.347E-02
DAV:   2    -0.382758087311E+02   -0.15291E-04   -0.32272E-04 12332   0.144E-01    0.206E-02
DAV:   3    -0.382758017086E+02    0.70225E-05   -0.15090E-05 12356   0.464E-02    0.793E-03
DAV:   4    -0.382758009822E+02    0.72635E-06   -0.53584E-06 12152   0.310E-02    0.189E-03
DAV:   5    -0.382758010734E+02   -0.91146E-07   -0.16167E-06 11768   0.169E-02    0.135E-03
DAV:   6    -0.382758010892E+02   -0.15850E-07   -0.23135E-07 12004   0.617E-03    0.653E-04
DAV:   7    -0.382758010931E+02   -0.38826E-08   -0.50143E-08  9072   0.220E-03
  56 F= -.38275801E+02 E0= -.38257378E+02  d E =-.258560E-04
 curvature: -20.74 expect dE=-0.860E-03 dE for cont linesearch -0.921E-08
 trial: gam= 2.27791 g(F)=  0.328E-04 g(S)=  0.865E-05 ort = 0.537E-06 (trialstep = 0.885E-01)
 search vector abs. value=  0.341E-02
 bond charge predicted
       N       E                     dE             d eps       ncg     rms          rms(c)
DAV:   1    -0.382758023255E+02   -0.12363E-05   -0.51934E-03  9896   0.384E-01    0.216E-02
DAV:   2    -0.382758071553E+02   -0.48298E-05   -0.11741E-04 12024   0.915E-02    0.124E-02
DAV:   3    -0.382758048291E+02    0.23263E-05   -0.64615E-06 12180   0.288E-02    0.534E-03
DAV:   4    -0.382758044384E+02    0.39070E-06   -0.20460E-06 12288   0.177E-02    0.109E-03
DAV:   5    -0.382758044768E+02   -0.38425E-07   -0.57931E-07 10824   0.870E-03    0.812E-04
DAV:   6    -0.382758044750E+02    0.18322E-08   -0.67477E-08 10476   0.429E-03
  57 F= -.38275804E+02 E0= -.38257401E+02  d E =-.338183E-05
 ZBRENT: can't locate minimum, use default step
 trial-energy change:   -0.000003  1 .order   -0.000003   -0.000004   -0.000003
 step:   0.3540(harm=  0.4495)  dis= 0.00274  next Energy=   -38.275811 (dE=-0.959E-05)
 bond charge predicted
       N       E                     dE             d eps       ncg     rms          rms(c)
DAV:   1    -0.382757952384E+02    0.92384E-05   -0.46750E-02  9900   0.115E+00    0.647E-02
DAV:   2    -0.382758390881E+02   -0.43850E-04   -0.10563E-03 12024   0.273E-01    0.373E-02
DAV:   3    -0.382758177014E+02    0.21387E-04   -0.58091E-05 12180   0.836E-02    0.160E-02
DAV:   4    -0.382758142152E+02    0.34862E-05   -0.18157E-05 12256   0.523E-02    0.332E-03
DAV:   5    -0.382758145580E+02   -0.34274E-06   -0.51336E-06 10852   0.266E-02    0.246E-03
DAV:   6    -0.382758145613E+02   -0.33742E-08   -0.62609E-07 12112   0.128E-02    0.138E-03
DAV:   7    -0.382758145544E+02    0.69167E-08   -0.15008E-07 13332   0.867E-03    0.445E-04
DAV:   8    -0.382758145496E+02    0.47949E-08   -0.38479E-08  8556   0.296E-03
  58 F= -.38275815E+02 E0= -.38257472E+02  d E =-.134565E-04
 curvature: -16.70 expect dE=-0.436E-03 dE for cont linesearch -0.217E-05
 ZBRENT: increasing intervall
 opt :   0.8849  next Energy=   -38.275819 (dE=-0.176E-04)
 bond charge predicted
       N       E                     dE             d eps       ncg     rms          rms(c)
DAV:   1    -0.382757378692E+02    0.76685E-04   -0.18695E-01  9900   0.230E+00    0.129E-01
DAV:   2    -0.382759135764E+02   -0.17571E-03   -0.42232E-03 12060   0.543E-01    0.745E-02
DAV:   3    -0.382758274218E+02    0.86155E-04   -0.22938E-04 12164   0.161E-01    0.319E-02
DAV:   4    -0.382758134333E+02    0.13989E-04   -0.71311E-05 12196   0.991E-02    0.668E-03
DAV:   5    -0.382758147468E+02   -0.13135E-05   -0.20043E-05 10900   0.520E-02    0.494E-03
DAV:   6    -0.382758147600E+02   -0.13158E-07   -0.24014E-06 12060   0.252E-02    0.277E-03
DAV:   7    -0.382758147496E+02    0.10409E-07   -0.58156E-07 13636   0.172E-02    0.916E-04
DAV:   8    -0.382758147485E+02    0.10082E-08   -0.16804E-07 13376   0.566E-03    0.406E-04
DAV:   9    -0.382758147492E+02   -0.62846E-09   -0.27456E-08  8228   0.181E-03
  59 F= -.38275815E+02 E0= -.38257593E+02  d E =-.136561E-04
 curvature: -31.94 expect dE=-0.213E-02 dE for cont linesearch -0.648E-06
 trial: gam= 1.57492 g(F)=  0.606E-04 g(S)=  0.617E-05 ort =-0.832E-05 (trialstep = 0.994E-01)
 search vector abs. value=  0.850E-02
 bond charge predicted
       N       E                     dE             d eps       ncg     rms          rms(c)
DAV:   1    -0.382758158627E+02   -0.11142E-05   -0.16239E-02  9912   0.679E-01    0.393E-02
DAV:   2    -0.382758284764E+02   -0.12614E-04   -0.35797E-04 12208   0.161E-01    0.227E-02
DAV:   3    -0.382758202320E+02    0.82444E-05   -0.20164E-05 12216   0.509E-02    0.918E-03
DAV:   4    -0.382758191115E+02    0.11204E-05   -0.63719E-06 12200   0.319E-02    0.196E-03
DAV:   5    -0.382758192520E+02   -0.14041E-06   -0.18780E-06 10864   0.166E-02    0.147E-03
DAV:   6    -0.382758192465E+02    0.55034E-08   -0.23563E-07 12364   0.762E-03    0.679E-04
DAV:   7    -0.382758192440E+02    0.24870E-08   -0.51326E-08  8664   0.442E-03
  60 F= -.38275819E+02 E0= -.38257636E+02  d E =-.449479E-05
 ZBRENT: can't locate minimum, use default step
 trial-energy change:   -0.000004  1 .order   -0.000005   -0.000005   -0.000005
 step:   0.3977(harm=  0.8267)  dis= 0.00476  next Energy=   -38.275837 (dE=-0.222E-04)
 bond charge predicted
       N       E                     dE             d eps       ncg     rms          rms(c)
DAV:   1    -0.382758007674E+02    0.18479E-04   -0.14619E-01  9912   0.204E+00    0.118E-01
DAV:   2    -0.382759151615E+02   -0.11439E-03   -0.32252E-03 12252   0.481E-01    0.681E-02
DAV:   3    -0.382758398289E+02    0.75333E-04   -0.17863E-04 12160   0.148E-01    0.275E-02
DAV:   4    -0.382758298293E+02    0.99996E-05   -0.56944E-05 12180   0.926E-02    0.593E-03
DAV:   5    -0.382758310143E+02   -0.11850E-05   -0.16571E-05 10896   0.498E-02    0.445E-03
DAV:   6    -0.382758310201E+02   -0.58349E-08   -0.21235E-06 12404   0.228E-02    0.209E-03
DAV:   7    -0.382758310329E+02   -0.12844E-07   -0.50274E-07 13116   0.136E-02    0.638E-04
DAV:   8    -0.382758310335E+02   -0.56934E-09   -0.13361E-07 11384   0.576E-03    0.354E-04
DAV:   9    -0.382758310347E+02   -0.11564E-08   -0.34534E-08  8356   0.217E-03
  61 F= -.38275831E+02 E0= -.38257761E+02  d E =-.162855E-04
 curvature: -42.71 expect dE=-0.322E-02 dE for cont linesearch -0.104E-04
 ZBRENT: increasing intervall
 opt :   0.9942  next Energy=   -38.275857 (dE=-0.424E-04)
 bond charge predicted
       N       E                     dE             d eps       ncg     rms          rms(c)
DAV:   1    -0.382757356369E+02    0.95397E-04   -0.58466E-01  9912   0.407E+00    0.236E-01
DAV:   2    -0.382761936863E+02   -0.45805E-03   -0.12906E-02 12272   0.954E-01    0.136E-01
DAV:   3    -0.382758904598E+02    0.30323E-03   -0.69935E-04 12120   0.285E-01    0.551E-02
DAV:   4    -0.382758504926E+02    0.39967E-04   -0.22703E-04 12088   0.179E-01    0.120E-02
DAV:   5    -0.382758549815E+02   -0.44889E-05   -0.64981E-05 10980   0.100E-01    0.899E-03
DAV:   6    -0.382758550990E+02   -0.11747E-06   -0.87959E-06 12080   0.475E-02    0.445E-03
DAV:   7    -0.382758551702E+02   -0.71198E-07   -0.20773E-06 13036   0.290E-02    0.143E-03
DAV:   8    -0.382758551925E+02   -0.22347E-07   -0.55472E-07 12640   0.113E-02    0.723E-04
DAV:   9    -0.382758551993E+02   -0.67466E-08   -0.14089E-07 11060   0.425E-03    0.385E-04
DAV:  10    -0.382758551927E+02    0.65875E-08   -0.17538E-08  6564   0.209E-03
  62 F= -.38275855E+02 E0= -.38258015E+02  d E =-.404435E-04
 curvature: ****** expect dE=-0.104E-01 dE for cont linesearch -0.152E-04
 ZBRENT: increasing intervall
 opt :   2.1872  next Energy=   -38.275884 (dE=-0.691E-04)
 bond charge predicted
       N       E                     dE             d eps       ncg     rms          rms(c)
DAV:   1    -0.382754028763E+02    0.45232E-03   -0.23382E+00  9908   0.814E+00    0.475E-01
DAV:   2    -0.382772454922E+02   -0.18426E-02   -0.51819E-02 12336   0.188E+00    0.273E-01
DAV:   3    -0.382760262901E+02    0.12192E-02   -0.27013E-03 12076   0.530E-01    0.112E-01
DAV:   4    -0.382758611362E+02    0.16515E-03   -0.91032E-04 12028   0.336E-01    0.252E-02
DAV:   5    -0.382758775067E+02   -0.16370E-04   -0.25315E-04 11044   0.199E-01    0.185E-02
DAV:   6    -0.382758782534E+02   -0.74669E-06   -0.37272E-05 11908   0.103E-01    0.992E-03
DAV:   7    -0.382758784310E+02   -0.17764E-06   -0.84056E-06 12828   0.618E-02    0.346E-03
DAV:   8    -0.382758786005E+02   -0.16950E-06   -0.23954E-06 13344   0.211E-02    0.147E-03
DAV:   9    -0.382758786291E+02   -0.28532E-07   -0.48375E-07 12620   0.831E-03    0.834E-04
DAV:  10    -0.382758786145E+02    0.14515E-07   -0.66102E-08 10760   0.393E-03    0.268E-04
DAV:  11    -0.382758786114E+02    0.31700E-08   -0.12376E-08  6172   0.136E-03
  63 F= -.38275879E+02 E0= -.38258497E+02  d E =-.638622E-04
 curvature: ****** expect dE=-0.348E-01 dE for cont linesearch -0.362E-06
 trial: gam= 1.27354 g(F)=  0.145E-03 g(S)=  0.271E-04 ort = 0.390E-05 (trialstep = 0.315E+00)
 search vector abs. value=  0.140E-01
 bond charge predicted
       N       E                     dE             d eps       ncg     rms          rms(c)
DAV:   1    -0.382759910800E+02   -0.11247E-03   -0.26335E-01  9940   0.277E+00    0.174E-01
DAV:   2    -0.382761097531E+02   -0.11867E-03   -0.59023E-03 12120   0.688E-01    0.996E-02
DAV:   3    -0.382759468974E+02    0.16286E-03   -0.39447E-04 12116   0.236E-01    0.397E-02
DAV:   4    -0.382759257630E+02    0.21134E-04   -0.12265E-04 12080   0.151E-01    0.873E-03
DAV:   5    -0.382759286800E+02   -0.29170E-05   -0.38568E-05 10808   0.781E-02    0.635E-03
DAV:   6    -0.382759287850E+02   -0.10504E-06   -0.53283E-06 12772   0.359E-02    0.277E-03
DAV:   7    -0.382759288435E+02   -0.58469E-07   -0.12225E-06 13080   0.190E-02    0.848E-04
DAV:   8    -0.382759288594E+02   -0.15902E-07   -0.33903E-07 11560   0.886E-03    0.509E-04
DAV:   9    -0.382759288616E+02   -0.22292E-08   -0.79679E-08  8996   0.356E-03
  64 F= -.38275929E+02 E0= -.38258712E+02  d E =-.502502E-04
 trial-energy change:   -0.000050  1 .order   -0.000050   -0.000056   -0.000044
 step:   0.9743(harm=  1.4754)  dis= 0.01406  next Energy=   -38.275979 (dE=-0.101E-03)
 bond charge predicted
       N       E                     dE             d eps       ncg     rms          rms(c)
DAV:   1    -0.382762772667E+02   -0.34841E-03   -0.11577E+00  9940   0.580E+00    0.365E-01
DAV:   2    -0.382767976356E+02   -0.52037E-03   -0.25966E-02 12152   0.142E+00    0.209E-01
DAV:   3    -0.382760772965E+02    0.72034E-03   -0.16899E-03 12124   0.471E-01    0.835E-02
DAV:   4    -0.382759838870E+02    0.93409E-04   -0.52646E-04 12040   0.305E-01    0.186E-02
DAV:   5    -0.382759959080E+02   -0.12021E-04   -0.16407E-04 10856   0.163E-01    0.134E-02
DAV:   6    -0.382759965546E+02   -0.64656E-06   -0.23324E-05 12432   0.770E-02    0.618E-03
DAV:   7    -0.382759968374E+02   -0.28278E-06   -0.52046E-06 13012   0.416E-02    0.199E-03
DAV:   8    -0.382759969141E+02   -0.76702E-07   -0.13877E-06 12216   0.181E-02    0.108E-03
DAV:   9    -0.382759969329E+02   -0.18857E-07   -0.35083E-07 11608   0.719E-03    0.581E-04
DAV:  10    -0.382759969240E+02    0.89440E-08   -0.61827E-08  8780   0.362E-03
  65 F= -.38275997E+02 E0= -.38259120E+02  d E =-.118313E-03
 curvature: -47.35 expect dE=-0.139E-01 dE for cont linesearch -0.117E-04
 ZBRENT: increasing intervall
 opt :   2.2937  next Energy=   -38.275968 (dE=-0.894E-04)
 bond charge predicted
       N       E                     dE             d eps       ncg     rms          rms(c)
DAV:   1    -0.382771023263E+02   -0.11054E-02   -0.46290E+00  9936   0.116E+01    0.734E-01
DAV:   2    -0.382792056834E+02   -0.21034E-02   -0.10453E-01 12204   0.277E+00    0.418E-01
DAV:   3    -0.382763130123E+02    0.28927E-02   -0.64505E-03 12148   0.857E-01    0.171E-01
DAV:   4    -0.382759159110E+02    0.39710E-03   -0.20439E-03 12020   0.561E-01    0.386E-02
DAV:   5    -0.382759588415E+02   -0.42931E-04   -0.62148E-04 10904   0.318E-01    0.278E-02
DAV:   6    -0.382759617394E+02   -0.28979E-05   -0.93138E-05 12132   0.162E-01    0.140E-02
DAV:   7    -0.382759625442E+02   -0.80481E-06   -0.19428E-05 12628   0.875E-02    0.507E-03
DAV:   8    -0.382759629353E+02   -0.39113E-06   -0.55774E-06 12872   0.338E-02    0.220E-03
DAV:   9    -0.382759630099E+02   -0.74542E-07   -0.11800E-06 12572   0.133E-02    0.123E-03
DAV:  10    -0.382759629905E+02    0.19363E-07   -0.20841E-07 12192   0.643E-03    0.397E-04
DAV:  11    -0.382759629875E+02    0.29722E-08   -0.41490E-08  8672   0.260E-03
  66 F= -.38275963E+02 E0= -.38259745E+02  d E =-.843762E-04
 curvature: 116.94 expect dE= 0.188E+00 dE for cont linesearch  0.931E-04
 ZBRENT: bracketing found
 ZBRENT: interpolating
 opt :   1.4462  next Energy=   -38.276011 (dE=-0.132E-03)
 bond charge predicted
       N       E                     dE             d eps       ncg     rms          rms(c)
DAV:   1    -0.382764508850E+02   -0.48789E-03   -0.19147E+00  9940   0.750E+00    0.471E-01
DAV:   2    -0.382773243988E+02   -0.87351E-03   -0.43559E-02 11888   0.192E+00    0.270E-01
DAV:   3    -0.382761616455E+02    0.11628E-02   -0.31869E-03 12368   0.718E-01    0.112E-01
DAV:   4    -0.382759864715E+02    0.17517E-03   -0.95833E-04 12088   0.436E-01    0.233E-02
DAV:   5    -0.382760083981E+02   -0.21927E-04   -0.28988E-04 10800   0.189E-01    0.167E-02
DAV:   6    -0.382760088556E+02   -0.45746E-06   -0.30424E-05 13084   0.851E-02    0.781E-03
DAV:   7    -0.382760093470E+02   -0.49147E-06   -0.71586E-06 13360   0.488E-02    0.220E-03
DAV:   8    -0.382760095290E+02   -0.18195E-06   -0.20877E-06 12980   0.222E-02    0.132E-03
DAV:   9    -0.382760095688E+02   -0.39760E-07   -0.45121E-07 12080   0.898E-03    0.726E-04
DAV:  10    -0.382760095859E+02   -0.17135E-07   -0.99800E-08 10988   0.399E-03    0.237E-04
DAV:  11    -0.382760095908E+02   -0.49322E-08   -0.16783E-08  6672   0.153E-03
  67 F= -.38276010E+02 E0= -.38259373E+02  d E =-.130979E-03
 curvature: -17.41 expect dE=-0.106E-01 dE for cont linesearch -0.782E-10
 trial: gam= 3.56522 g(F)=  0.533E-03 g(S)=  0.773E-04 ort =-0.251E-06 (trialstep = 0.424E-01)
 search vector abs. value=  0.178E+00
 bond charge predicted
       N       E                     dE             d eps       ncg     rms          rms(c)
DAV:   1    -0.382760579951E+02   -0.48409E-04   -0.60800E-02  9960   0.134E+00    0.871E-02
DAV:   2    -0.382760771132E+02   -0.19118E-04   -0.14149E-03 11828   0.356E-01    0.491E-02
DAV:   3    -0.382760406994E+02    0.36414E-04   -0.10956E-04 12300   0.122E-01    0.213E-02
DAV:   4    -0.382760339207E+02    0.67787E-05   -0.30265E-05 12096   0.735E-02    0.415E-03
DAV:   5    -0.382760346211E+02   -0.70039E-06   -0.92852E-06 10716   0.342E-02    0.300E-03
DAV:   6    -0.382760346275E+02   -0.63560E-08   -0.10178E-06 12308   0.175E-02    0.167E-03
DAV:   7    -0.382760346149E+02    0.12502E-07   -0.23382E-07 13324   0.106E-02    0.543E-04
DAV:   8    -0.382760346104E+02    0.45206E-08   -0.71577E-08 10852   0.337E-03
  68 F= -.38276035E+02 E0= -.38259464E+02  d E =-.250196E-04
 ZBRENT: can't locate minimum, use default step
 trial-energy change:   -0.000025  1 .order   -0.000025   -0.000026   -0.000025
 step:   0.1696(harm=  1.0770)  dis= 0.00855  next Energy=   -38.276338 (dE=-0.328E-03)
 bond charge predicted
       N       E                     dE             d eps       ncg     rms          rms(c)
DAV:   1    -0.382763181369E+02   -0.28352E-03   -0.54710E-01  9960   0.403E+00    0.261E-01
DAV:   2    -0.382764901656E+02   -0.17203E-03   -0.12728E-02 11888   0.106E+00    0.147E-01
DAV:   3    -0.382761576042E+02    0.33256E-03   -0.96105E-04 12244   0.356E-01    0.638E-02
DAV:   4    -0.382760967127E+02    0.60892E-04   -0.26884E-04 12140   0.217E-01    0.127E-02
DAV:   5    -0.382761027474E+02   -0.60347E-05   -0.82376E-05 10744   0.105E-01    0.912E-03
DAV:   6    -0.382761029296E+02   -0.18225E-06   -0.96554E-06 12208   0.534E-02    0.517E-03
DAV:   7    -0.382761029219E+02    0.77371E-08   -0.21508E-06 13336   0.321E-02    0.176E-03
DAV:   8    -0.382761029501E+02   -0.28195E-07   -0.68816E-07 13824   0.101E-02    0.782E-04
DAV:   9    -0.382761029528E+02   -0.27349E-08   -0.10454E-07 10664   0.424E-03    0.472E-04
DAV:  10    -0.382761029437E+02    0.91245E-08   -0.16338E-08  6468   0.171E-03
  69 F= -.38276103E+02 E0= -.38259730E+02  d E =-.933529E-04
 curvature: -36.34 expect dE=-0.183E-01 dE for cont linesearch -0.588E-04
 ZBRENT: increasing intervall
 opt :   0.4241  next Energy=   -38.276227 (dE=-0.218E-03)
 bond charge predicted
       N       E                     dE             d eps       ncg     rms          rms(c)
DAV:   1    -0.382771140267E+02   -0.10111E-02   -0.21882E+00  9960   0.804E+00    0.525E-01
DAV:   2    -0.382777915328E+02   -0.67751E-03   -0.50971E-02 11916   0.207E+00    0.294E-01
DAV:   3    -0.382764502750E+02    0.13413E-02   -0.37495E-03 12156   0.679E-01    0.128E-01
DAV:   4    -0.382762043608E+02    0.24591E-03   -0.10611E-03 12156   0.423E-01    0.261E-02
DAV:   5    -0.382762268624E+02   -0.22502E-04   -0.32085E-04 10768   0.215E-01    0.185E-02
DAV:   6    -0.382762280241E+02   -0.11617E-05   -0.42190E-05 12112   0.111E-01    0.109E-02
DAV:   7    -0.382762280264E+02   -0.23197E-08   -0.87470E-06 13292   0.651E-02    0.396E-03
DAV:   8    -0.382762282134E+02   -0.18701E-06   -0.28043E-06 13904   0.199E-02    0.158E-03
DAV:   9    -0.382762282329E+02   -0.19515E-07   -0.43955E-07 11704   0.853E-03    0.101E-03
DAV:  10    -0.382762282141E+02    0.18838E-07   -0.75226E-08 11504   0.349E-03    0.356E-04
DAV:  11    -0.382762282079E+02    0.62209E-08   -0.14163E-08  6172   0.143E-03
  70 F= -.38276228E+02 E0= -.38260237E+02  d E =-.218617E-03
 curvature: -76.82 expect dE=-0.334E-01 dE for cont linesearch -0.103E-03
 ZBRENT: increasing intervall
 opt :   0.9330  next Energy=   -38.276453 (dE=-0.443E-03)
 bond charge predicted
       N       E                     dE             d eps       ncg     rms          rms(c)
DAV:   1    -0.382800395879E+02   -0.38114E-02   -0.87519E+00  9956   0.161E+01    0.106E+00
DAV:   2    -0.382828245657E+02   -0.27850E-02   -0.20628E-01 12008   0.398E+00    0.589E-01
DAV:   3    -0.382773905057E+02    0.54341E-02   -0.14040E-02 12020   0.122E+00    0.262E-01
DAV:   4    -0.382763505246E+02    0.10400E-02   -0.42028E-03 12324   0.796E-01    0.564E-02
DAV:   5    -0.382764298309E+02   -0.79306E-04   -0.12431E-03 10760   0.443E-01    0.385E-02
DAV:   6    -0.382764355309E+02   -0.56999E-05   -0.18139E-04 12152   0.228E-01    0.231E-02
DAV:   7    -0.382764354556E+02    0.75257E-07   -0.35230E-05 12516   0.131E-01    0.917E-03
DAV:   8    -0.382764364702E+02   -0.10145E-05   -0.11924E-05 13916   0.391E-02    0.324E-03
DAV:   9    -0.382764365688E+02   -0.98589E-07   -0.18798E-06 11620   0.176E-02    0.211E-03
DAV:  10    -0.382764365320E+02    0.36803E-07   -0.31792E-07 12988   0.703E-03    0.841E-04
DAV:  11    -0.382764365185E+02    0.13429E-07   -0.78959E-08 12128   0.324E-03    0.236E-04
DAV:  12    -0.382764365152E+02    0.33056E-08   -0.12505E-08  6164   0.100E-03
  71 F= -.38276437E+02 E0= -.38261133E+02  d E =-.426924E-03
 curvature: ****** expect dE=-0.111E+00 dE for cont linesearch -0.118E-03
 ZBRENT: increasing intervall
 opt :   1.9509  next Energy=   -38.276660 (dE=-0.650E-03)
 bond charge predicted
       N       E                     dE             d eps       ncg     rms          rms(c)
DAV:   1    -0.382888863854E+02   -0.12450E-01   -0.35015E+01  9956   0.320E+01    0.218E+00
DAV:   2    -0.383028460077E+02   -0.13960E-01   -0.86978E-01 11888   0.747E+00    0.119E+00
DAV:   3    -0.382810226065E+02    0.21823E-01   -0.51567E-02 12236   0.216E+00    0.576E-01
DAV:   4    -0.382759065125E+02    0.51161E-02   -0.17780E-02 11908   0.144E+00    0.137E-01
DAV:   5    -0.382761690378E+02   -0.26253E-03   -0.52964E-03 10888   0.882E-01    0.851E-02
DAV:   6    -0.382761923354E+02   -0.23298E-04   -0.76946E-04 12232   0.474E-01    0.497E-02
DAV:   7    -0.382761905386E+02    0.17968E-05   -0.15568E-04 12588   0.272E-01    0.235E-02
DAV:   8    -0.382761956209E+02   -0.50823E-05   -0.57489E-05 13472   0.788E-02    0.751E-03
DAV:   9    -0.382761956349E+02   -0.13985E-07   -0.10512E-05 13064   0.378E-02    0.418E-03
DAV:  10    -0.382761955573E+02    0.77623E-07   -0.19013E-06 11404   0.141E-02    0.198E-03
DAV:  11    -0.382761955451E+02    0.12186E-07   -0.49434E-07 12856   0.815E-03    0.775E-04
DAV:  12    -0.382761955241E+02    0.21065E-07   -0.69011E-08 10668   0.377E-03    0.269E-04
DAV:  13    -0.382761955276E+02   -0.35275E-08   -0.12686E-08  6608   0.930E-04
  72 F= -.38276196E+02 E0= -.38261839E+02  d E =-.185937E-03
 curvature: ****** expect dE=-0.104E+01 dE for cont linesearch -0.126E-02
 ZBRENT: bracketing found
 ZBRENT: interpolating
[...]
DAV:   1    -0.383508875995E+02   -0.68066E-05   -0.94412E-04 10644   0.225E-01    0.237E-02
DAV:   2    -0.383508832038E+02    0.43956E-05   -0.75118E-05 11372   0.119E-01    0.115E-02
DAV:   3    -0.383508821812E+02    0.10226E-05   -0.67685E-06 13668   0.316E-02    0.558E-03
DAV:   4    -0.383508816766E+02    0.50461E-06   -0.10603E-06 13688   0.165E-02    0.142E-03
DAV:   5    -0.383508817070E+02   -0.30402E-07   -0.42074E-07 10836   0.576E-03    0.432E-04
DAV:   6    -0.383508817107E+02   -0.36262E-08   -0.42132E-08 10328   0.171E-03
 169 F= -.38350882E+02 E0= -.38336601E+02  d E =-.258038E-05
 curvature:  -1.45 expect dE=-0.318E-05 dE for cont linesearch -0.595E-08
 trial: gam= 0.74729 g(F)=  0.188E-05 g(S)=  0.321E-06 ort = 0.135E-06 (trialstep = 0.914E+00)
 search vector abs. value=  0.489E-05
 bond charge predicted
       N       E                     dE             d eps       ncg     rms          rms(c)
DAV:   1    -0.383508831963E+02   -0.14892E-05   -0.75957E-04 10156   0.160E-01    0.109E-02
DAV:   2    -0.383508837134E+02   -0.51716E-06   -0.21942E-05 12216   0.461E-02    0.657E-03
DAV:   3    -0.383508832101E+02    0.50327E-06   -0.18610E-06 12984   0.166E-02    0.315E-03
DAV:   4    -0.383508830725E+02    0.13765E-06   -0.53037E-07 11144   0.823E-03    0.580E-04
DAV:   5    -0.383508830784E+02   -0.59190E-08   -0.15781E-07 11332   0.395E-03    0.363E-04
DAV:   6    -0.383508830750E+02    0.34511E-08   -0.13460E-08  6204   0.200E-03
 170 F= -.38350883E+02 E0= -.38336602E+02  d E =-.136430E-05
 trial-energy change:   -0.000001  1 .order   -0.000001   -0.000002   -0.000001
 step:   1.6248(harm=  1.3859)  dis= 0.00026  next Energy=   -38.350883 (dE=-0.162E-05)
 bond charge predicted
       N       E                     dE             d eps       ncg     rms          rms(c)
DAV:   1    -0.383508832684E+02   -0.19000E-06   -0.46062E-04 10156   0.124E-01    0.854E-03
DAV:   2    -0.383508835745E+02   -0.30606E-06   -0.13363E-05 12208   0.362E-02    0.513E-03
DAV:   3    -0.383508832787E+02    0.29574E-06   -0.11560E-06 12976   0.132E-02    0.247E-03
DAV:   4    -0.383508831959E+02    0.82857E-07   -0.32123E-07 11204   0.650E-03    0.456E-04
DAV:   5    -0.383508831985E+02   -0.26216E-08   -0.95373E-08 10932   0.337E-03
 171 F= -.38350883E+02 E0= -.38336601E+02  d E =-.148784E-05
 curvature:  -1.10 expect dE=-0.721E-05 dE for cont linesearch -0.311E-07
 trial: gam= 3.26442 g(F)=  0.543E-05 g(S)=  0.115E-05 ort =-0.372E-06 (trialstep = 0.918E-01)
 search vector abs. value=  0.562E-04
 bond charge predicted
       N       E                     dE             d eps       ncg     rms          rms(c)
DAV:   1    -0.383508836269E+02   -0.43102E-06   -0.91651E-05 10044   0.551E-02    0.339E-03
DAV:   2    -0.383508837097E+02   -0.82852E-07   -0.24558E-06 11836   0.145E-02    0.193E-03
DAV:   3    -0.383508836444E+02    0.65306E-07   -0.17162E-07 11852   0.593E-03    0.980E-04
DAV:   4    -0.383508836243E+02    0.20164E-07   -0.48274E-08 10556   0.393E-03    0.191E-04
DAV:   5    -0.383508836239E+02    0.41155E-09   -0.16425E-08  5776   0.160E-03
 172 F= -.38350884E+02 E0= -.38336601E+02  d E =-.425364E-06
 ZBRENT: can't locate minimum, use default step
 trial-energy change:   -0.000000  1 .order   -0.000000   -0.000000   -0.000000
 step:   0.3671(harm=  0.5348)  dis= 0.00014  next Energy=   -38.350885 (dE=-0.143E-05)
 bond charge predicted
       N       E                     dE             d eps       ncg     rms          rms(c)
DAV:   1    -0.383508687528E+02    0.14872E-04   -0.82458E-04 10036   0.165E-01    0.102E-02
DAV:   2    -0.383508695261E+02   -0.77331E-06   -0.22006E-05 11888   0.426E-02    0.577E-03
DAV:   3    -0.383508690841E+02    0.44196E-06   -0.14628E-06 11800   0.162E-02    0.295E-03
DAV:   4    -0.383508689443E+02    0.13979E-06   -0.44553E-07 13008   0.108E-02    0.572E-04
DAV:   5    -0.383508689488E+02   -0.44583E-08   -0.14376E-07 10840   0.406E-03    0.314E-04
DAV:   6    -0.383508689514E+02   -0.26107E-08   -0.17021E-08  7164   0.141E-03
 173 F= -.38350869E+02 E0= -.38336584E+02  d E =0.142471E-04
 curvature:  -2.40 expect dE=-0.791E-05 dE for cont linesearch -0.900E-07
 trial: gam=-0.08238 g(F)=  0.306E-05 g(S)=  0.232E-06 ort = 0.145E-05 (trialstep = 0.147E+00)
 search vector abs. value=  0.344E-05
 bond charge predicted
       N       E                     dE             d eps       ncg     rms          rms(c)
DAV:   1    -0.383508693122E+02   -0.36340E-06   -0.15091E-05 10228   0.225E-02    0.124E-03
DAV:   2    -0.383508693626E+02   -0.50366E-07   -0.73476E-07 12056   0.773E-03    0.871E-04
DAV:   3    -0.383508693518E+02    0.10780E-07   -0.63320E-08 10432   0.313E-03    0.533E-04
DAV:   4    -0.383508693451E+02    0.66802E-08   -0.11938E-08  5896   0.243E-03
 174 F= -.38350869E+02 E0= -.38336585E+02  d E =-.393698E-06
 trial-energy change:   -0.000000  1 .order   -0.000000   -0.000000   -0.000000
 step:   0.5001(harm=  0.5001)  dis= 0.00006  next Energy=   -38.350870 (dE=-0.794E-06)
 bond charge predicted
       N       E                     dE             d eps       ncg     rms          rms(c)
DAV:   1    -0.383508849395E+02   -0.15588E-04   -0.87255E-05 10220   0.539E-02    0.299E-03
DAV:   2    -0.383508852342E+02   -0.29468E-06   -0.42343E-06 12148   0.169E-02    0.211E-03
DAV:   3    -0.383508851850E+02    0.49165E-07   -0.31796E-07 11660   0.672E-03    0.128E-03
DAV:   4    -0.383508851542E+02    0.30826E-07   -0.72684E-08 11504   0.526E-03    0.426E-04
DAV:   5    -0.383508851554E+02   -0.11946E-08   -0.23114E-08  7068   0.252E-03
 175 F= -.38350885E+02 E0= -.38336601E+02  d E =-.162040E-04
 curvature:  -0.27 expect dE=-0.370E-06 dE for cont linesearch -0.187E-08
 trial: gam= 0.42136 g(F)=  0.114E-05 g(S)=  0.230E-06 ort =-0.154E-06 (trialstep = 0.217E+00)
 search vector abs. value=  0.185E-05
 bond charge predicted
       N       E                     dE             d eps       ncg     rms          rms(c)
DAV:   1    -0.383508853806E+02   -0.22638E-06   -0.18290E-05 10200   0.284E-02    0.243E-03
DAV:   2    -0.383508853820E+02   -0.14434E-08   -0.12572E-06 11488   0.134E-02    0.103E-03
DAV:   3    -0.383508853895E+02   -0.74551E-08   -0.10686E-07 11396   0.402E-03    0.560E-04
DAV:   4    -0.383508853898E+02   -0.36925E-09   -0.14715E-08  6180   0.237E-03
 176 F= -.38350885E+02 E0= -.38336601E+02  d E =-.234454E-06
 trial-energy change:   -0.000000  1 .order   -0.000000   -0.000000   -0.000000
 step:   0.5854(harm=  0.5854)  dis= 0.00005  next Energy=   -38.350886 (dE=-0.381E-06)
 bond charge predicted
       N       E                     dE             d eps       ncg     rms          rms(c)
DAV:   1    -0.383508855777E+02   -0.18823E-06   -0.51982E-05 10168   0.481E-02    0.412E-03
DAV:   2    -0.383508855880E+02   -0.10327E-07   -0.36177E-06 11464   0.223E-02    0.176E-03
DAV:   3    -0.383508855912E+02   -0.31714E-08   -0.30177E-07 11964   0.671E-03    0.958E-04
DAV:   4    -0.383508855831E+02    0.81372E-08   -0.51014E-08 10604   0.393E-03
 177 F= -.38350886E+02 E0= -.38336602E+02  d E =-.427680E-06
 curvature:  -0.42 expect dE=-0.491E-06 dE for cont linesearch -0.639E-10
 trial: gam= 0.83573 g(F)=  0.477E-06 g(S)=  0.705E-06 ort = 0.169E-07 (trialstep = 0.215E+00)
 search vector abs. value=  0.250E-05
 bond charge predicted
       N       E                     dE             d eps       ncg     rms          rms(c)
DAV:   1    -0.383508858771E+02   -0.28591E-06   -0.23200E-05  9952   0.323E-02    0.306E-03
DAV:   2    -0.383508858477E+02    0.29414E-07   -0.16385E-06 11420   0.165E-02    0.151E-03
DAV:   3    -0.383508858007E+02    0.47025E-07   -0.12616E-07 12980   0.419E-03    0.746E-04
DAV:   4    -0.383508857747E+02    0.25986E-07   -0.18101E-08  6716   0.185E-03    0.197E-04
DAV:   5    -0.383508857711E+02    0.35998E-08   -0.11635E-08  5612   0.926E-04
 178 F= -.38350886E+02 E0= -.38336603E+02  d E =-.188026E-06
 trial-energy change:   -0.000000  1 .order   -0.000000   -0.000000   -0.000000
 step:   0.5718(harm=  0.5718)  dis= 0.00005  next Energy=   -38.350886 (dE=-0.342E-06)
 bond charge predicted
       N       E                     dE             d eps       ncg     rms          rms(c)
DAV:   1    -0.383508862411E+02   -0.46637E-06   -0.64026E-05  9916   0.539E-02    0.510E-03
DAV:   2    -0.383508861485E+02    0.92546E-07   -0.45231E-06 11384   0.271E-02    0.251E-03
DAV:   3    -0.383508860477E+02    0.10079E-06   -0.34795E-07 13564   0.711E-03    0.125E-03
DAV:   4    -0.383508859939E+02    0.53859E-07   -0.63555E-08 11616   0.322E-03    0.306E-04
DAV:   5    -0.383508859874E+02    0.64829E-08   -0.23059E-08  6996   0.133E-03
 179 F= -.38350886E+02 E0= -.38336603E+02  d E =-.404324E-06
 curvature:  -0.60 expect dE=-0.400E-06 dE for cont linesearch -0.311E-07
 trial: gam= 0.25905 g(F)=  0.489E-06 g(S)=  0.179E-06 ort = 0.361E-06 (trialstep = 0.286E+00)
 search vector abs. value=  0.102E-05
 bond charge predicted
       N       E                     dE             d eps       ncg     rms          rms(c)
DAV:   1    -0.383508861785E+02   -0.18462E-06   -0.17628E-05  9940   0.241E-02    0.177E-03
DAV:   2    -0.383508861796E+02   -0.10850E-08   -0.62374E-07 11592   0.665E-03    0.101E-03
DAV:   3    -0.383508861767E+02    0.28731E-08   -0.36238E-08 10520   0.257E-03
 180 F= -.38350886E+02 E0= -.38336604E+02  d E =-.189319E-06
 ZBRENT: can't locate minimum, use default step
 trial-energy change:   -0.000000  1 .order   -0.000000   -0.000000   -0.000000
 step:   1.1456(harm=  2.6125)  dis= 0.00007  next Energy=   -38.350887 (dE=-0.996E-06)
 bond charge predicted
       N       E                     dE             d eps       ncg     rms          rms(c)
DAV:   1    -0.383508865841E+02   -0.40456E-06   -0.15790E-04  9936   0.720E-02    0.535E-03
DAV:   2    -0.383508865921E+02   -0.79581E-08   -0.54110E-06 11672   0.193E-02    0.306E-03
DAV:   3    -0.383508864997E+02    0.92354E-07   -0.34411E-07 13400   0.737E-03    0.146E-03
DAV:   4    -0.383508864719E+02    0.27881E-07   -0.12468E-07 12092   0.518E-03    0.361E-04
DAV:   5    -0.383508864831E+02   -0.11233E-07   -0.40466E-08 10188   0.239E-03    0.162E-04
DAV:   6    -0.383508864838E+02   -0.70622E-09   -0.42490E-09  5588   0.828E-04
 181 F= -.38350886E+02 E0= -.38336604E+02  d E =-.496411E-06
 curvature:  -1.06 expect dE=-0.690E-06 dE for cont linesearch -0.131E-07
 trial: gam= 0.97421 g(F)=  0.434E-06 g(S)=  0.219E-06 ort = 0.113E-06 (trialstep = 0.254E+00)
 search vector abs. value=  0.184E-05
 bond charge predicted
       N       E                     dE             d eps       ncg     rms          rms(c)
DAV:   1    -0.383508866545E+02   -0.17144E-06   -0.24288E-05 10888   0.311E-02    0.256E-03
DAV:   2    -0.383508866342E+02    0.20314E-07   -0.11858E-06 11704   0.130E-02    0.124E-03
DAV:   3    -0.383508866386E+02   -0.43901E-08   -0.86034E-08 11600   0.356E-03
 182 F= -.38350887E+02 E0= -.38336604E+02  d E =-.154812E-06
 trial-energy change:   -0.000000  1 .order   -0.000000   -0.000000   -0.000000
 step:   0.9759(harm=  0.9759)  dis= 0.00009  next Energy=   -38.350887 (dE=-0.372E-06)
 bond charge predicted
       N       E                     dE             d eps       ncg     rms          rms(c)
DAV:   1    -0.383508716090E+02    0.15025E-04   -0.19484E-04 10852   0.875E-02    0.733E-03
DAV:   2    -0.383508714571E+02    0.15192E-06   -0.93610E-06 11724   0.362E-02    0.358E-03
DAV:   3    -0.383508714033E+02    0.53718E-07   -0.70493E-07 12416   0.101E-02    0.187E-03
DAV:   4    -0.383508713730E+02    0.30384E-07   -0.12789E-07 13760   0.563E-03    0.460E-04
DAV:   5    -0.383508713844E+02   -0.11466E-07   -0.50305E-08 10256   0.263E-03    0.172E-04
DAV:   6    -0.383508713864E+02   -0.19900E-08   -0.66381E-09  5580   0.122E-03
 183 F= -.38350871E+02 E0= -.38336590E+02  d E =0.150974E-04
 curvature:  -1.18 expect dE=-0.169E-05 dE for cont linesearch -0.555E-09
 trial: gam= 2.45914 g(F)=  0.110E-05 g(S)=  0.326E-06 ort =-0.294E-07 (trialstep = 0.591E-01)
 search vector abs. value=  0.124E-04
 bond charge predicted
       N       E                     dE             d eps       ncg     rms          rms(c)
DAV:   1    -0.383508714594E+02   -0.74994E-07   -0.89012E-06  9932   0.164E-02    0.101E-03
DAV:   2    -0.383508714618E+02   -0.23811E-08   -0.18904E-07 11592   0.402E-03    0.565E-04
DAV:   3    -0.383508714602E+02    0.15543E-08   -0.10420E-08  5812   0.154E-03
 184 F= -.38350871E+02 E0= -.38336590E+02  d E =-.738305E-07
 ZBRENT: can't locate minimum, use default step
 trial-energy change:   -0.000000  1 .order   -0.000000   -0.000000   -0.000000
 step:   0.2365(harm=  0.2365)  dis= 0.00006  next Energy=   -38.350872 (dE=-0.368E-06)
 bond charge predicted
       N       E                     dE             d eps       ncg     rms          rms(c)
DAV:   1    -0.383508716671E+02   -0.20534E-06   -0.79836E-05  9924   0.490E-02    0.305E-03
DAV:   2    -0.383508716997E+02   -0.32585E-07   -0.16591E-06 12056   0.113E-02    0.170E-03
DAV:   3    -0.383508716747E+02    0.25042E-07   -0.10336E-07 12952   0.356E-03    0.862E-04
DAV:   4    -0.383508716627E+02    0.11986E-07   -0.20906E-08  6508   0.266E-03    0.159E-04
DAV:   5    -0.383508716655E+02   -0.27708E-08   -0.14033E-08  5484   0.141E-03
 185 F= -.38350872E+02 E0= -.38336590E+02  d E =-.279053E-06
 curvature:  -1.67 expect dE=-0.202E-05 dE for cont linesearch -0.191E-06
 ZBRENT: increasing intervall
 opt :   0.5912  next Energy=   -38.350872 (dE=-0.608E-06)
 bond charge predicted
       N       E                     dE             d eps       ncg     rms          rms(c)
DAV:   1    -0.383508719569E+02   -0.29416E-06   -0.31955E-04  9920   0.982E-02    0.608E-03
DAV:   2    -0.383508721264E+02   -0.16954E-06   -0.68448E-06 11832   0.234E-02    0.338E-03
DAV:   3    -0.383508720179E+02    0.10849E-06   -0.43738E-07 13060   0.794E-03    0.174E-03
DAV:   4    -0.383508719735E+02    0.44402E-07   -0.11391E-07 12680   0.596E-03    0.335E-04
DAV:   5    -0.383508719784E+02   -0.49540E-08   -0.43096E-08  9680   0.263E-03
 186 F= -.38350872E+02 E0= -.38336591E+02  d E =-.592033E-06
 curvature:  -2.88 expect dE=-0.339E-05 dE for cont linesearch -0.127E-06
 ZBRENT: increasing intervall
 opt :   1.3006  next Energy=   -38.350872 (dE=-0.795E-06)
 bond charge predicted
       N       E                     dE             d eps       ncg     rms          rms(c)
DAV:   1    -0.383508721423E+02   -0.16877E-06   -0.12790E-03  9920   0.196E-01    0.122E-02
DAV:   2    -0.383508728437E+02   -0.70139E-06   -0.27324E-05 11656   0.469E-02    0.677E-03
DAV:   3    -0.383508723730E+02    0.47063E-06   -0.18098E-06 13060   0.163E-02    0.348E-03
DAV:   4    -0.383508721959E+02    0.17710E-06   -0.46946E-07 13232   0.123E-02    0.677E-04
DAV:   5    -0.383508722109E+02   -0.14950E-07   -0.17618E-07 10816   0.533E-03    0.369E-04
DAV:   6    -0.383508722123E+02   -0.14547E-08   -0.25550E-08  7380   0.186E-03
 187 F= -.38350872E+02 E0= -.38336592E+02  d E =-.825914E-06
 curvature:  -4.62 expect dE=-0.519E-05 dE for cont linesearch -0.109E-09
 trial: gam= 0.15124 g(F)=  0.705E-06 g(S)=  0.421E-06 ort =-0.171E-07 (trialstep = 0.307E+00)
 search vector abs. value=  0.140E-05
 bond charge predicted
       N       E                     dE             d eps       ncg     rms          rms(c)
DAV:   1    -0.383508727127E+02   -0.50181E-06   -0.25152E-05 11904   0.435E-02    0.436E-03
DAV:   2    -0.383508725547E+02    0.15803E-06   -0.28673E-06 11856   0.220E-02    0.190E-03
DAV:   3    -0.383508724910E+02    0.63660E-07   -0.24376E-07 13228   0.584E-03    0.970E-04
DAV:   4    -0.383508724476E+02    0.43438E-07   -0.30500E-08  8836   0.368E-03    0.279E-04
DAV:   5    -0.383508724401E+02    0.74519E-08   -0.17068E-08  5920   0.156E-03
 188 F= -.38350872E+02 E0= -.38336591E+02  d E =-.227782E-06
 trial-energy change:   -0.000000  1 .order   -0.000000   -0.000000   -0.000000
 step:   0.4571(harm=  0.4571)  dis= 0.00004  next Energy=   -38.350872 (dE=-0.257E-06)
 bond charge predicted
       N       E                     dE             d eps       ncg     rms          rms(c)
DAV:   1    -0.383508725499E+02   -0.10236E-06   -0.59278E-06 11924   0.211E-02    0.213E-03
DAV:   2    -0.383508725129E+02    0.37055E-07   -0.67618E-07 11916   0.105E-02    0.922E-04
DAV:   3    -0.383508724905E+02    0.22350E-07   -0.52991E-08 10696   0.265E-03    0.469E-04
DAV:   4    -0.383508724752E+02    0.15292E-07   -0.65848E-09  5556   0.170E-03    0.132E-04
DAV:   5    -0.383508724719E+02    0.33187E-08   -0.46984E-09  5232   0.831E-04
 189 F= -.38350872E+02 E0= -.38336591E+02  d E =-.259576E-06
 curvature:  -0.29 expect dE=-0.183E-06 dE for cont linesearch -0.124E-09
 trial: gam= 0.55731 g(F)=  0.477E-06 g(S)=  0.162E-06 ort = 0.247E-07 (trialstep = 0.337E+00)
 search vector abs. value=  0.110E-05
 bond charge predicted
       N       E                     dE             d eps       ncg     rms          rms(c)
DAV:   1    -0.383508727684E+02   -0.29322E-06   -0.23413E-05 10128   0.318E-02    0.304E-03
DAV:   2    -0.383508727336E+02    0.34862E-07   -0.15163E-06 11768   0.141E-02    0.159E-03
DAV:   3    -0.383508726840E+02    0.49583E-07   -0.11859E-07 12640   0.441E-03    0.784E-04
DAV:   4    -0.383508726631E+02    0.20880E-07   -0.28687E-08  8452   0.236E-03    0.211E-04
DAV:   5    -0.383508726580E+02    0.50882E-08   -0.11937E-08  5340   0.102E-03
 190 F= -.38350873E+02 E0= -.38336590E+02  d E =-.186125E-06
 trial-energy change:   -0.000000  1 .order   -0.000000   -0.000000   -0.000000
 step:   1.1714(harm=  1.1714)  dis= 0.00010  next Energy=   -38.350873 (dE=-0.382E-06)
 bond charge predicted
       N       E                     dE             d eps       ncg     rms          rms(c)
DAV:   1    -0.383508733756E+02   -0.71244E-06   -0.14292E-04 10132   0.786E-02    0.750E-03
DAV:   2    -0.383508731184E+02    0.25711E-06   -0.92166E-06 11796   0.349E-02    0.394E-03
DAV:   3    -0.383508729064E+02    0.21208E-06   -0.72020E-07 12840   0.110E-02    0.194E-03
DAV:   4    -0.383508728143E+02    0.92020E-07   -0.19784E-07 13464   0.588E-03    0.496E-04
DAV:   5    -0.383508728019E+02    0.12480E-07   -0.57244E-08 10680   0.224E-03    0.168E-04
DAV:   6    -0.383508728012E+02    0.71850E-09   -0.40085E-09  5644   0.795E-04
 191 F= -.38350873E+02 E0= -.38336589E+02  d E =-.329246E-06
 curvature:  -0.99 expect dE=-0.365E-06 dE for cont linesearch -0.120E-07
 trial: gam= 0.00000 g(F)=  0.218E-06 g(S)=  0.151E-06 ort =-0.116E-06 (trialstep = 0.504E+00)
 search vector abs. value=  0.369E-06
 bond charge predicted
       N       E                     dE             d eps       ncg     rms          rms(c)
DAV:   1    -0.383508732125E+02   -0.41059E-06   -0.18588E-05 13396   0.396E-02    0.465E-03
DAV:   2    -0.383508728955E+02    0.31692E-06   -0.22476E-06 12800   0.201E-02    0.193E-03
DAV:   3    -0.383508728816E+02    0.13965E-07   -0.19832E-07 13960   0.474E-03    0.957E-04
DAV:   4    -0.383508728821E+02   -0.51432E-09   -0.22233E-08  8008   0.278E-03
 192 F= -.38350873E+02 E0= -.38336589E+02  d E =-.809359E-07
 trial-energy change:   -0.000000  1 .order   -0.000000   -0.000000    0.000000
 step:   0.4287(harm=  0.4287)  dis= 0.00002  next Energy=   -38.350873 (dE=-0.791E-07)
 bond charge predicted
       N       E                     dE             d eps       ncg     rms          rms(c)
DAV:   1    -0.383508729009E+02   -0.19357E-07   -0.42565E-07 12836   0.555E-03    0.665E-04
DAV:   2    -0.383508728984E+02    0.25257E-08   -0.54853E-08  8704   0.324E-03
 193 F= -.38350873E+02 E0= -.38336589E+02  d E =-.972532E-07
 curvature:  -0.21 expect dE=-0.311E-07 dE for cont linesearch -0.159E-07
 trial: gam=-0.05529 g(F)=  0.806E-07 g(S)=  0.645E-07 ort = 0.165E-06 (trialstep = 0.489E+00)
 search vector abs. value=  0.128E-06
 reached required accuracy - stopping structural energy minimisation
 writing wavefunctions
Thu Jan  6 01:04:43 CST 2022
