Thu Jan  6 00:35:49 CST 2022
 running on   48 total cores
 distrk:  each k-point on   48 cores,    1 groups
 distr:  one band on   24 cores,    2 groups
 using from now: INCAR     
 vasp.5.3.5 31Mar14 (build Jan 11 2016 19:50:55) complex                        
  
 POSCAR found type information on POSCAR  Zn Ga N  O 
 POSCAR found :  4 types and       8 ions
 scaLAPACK will be used

 ----------------------------------------------------------------------------- 
|                                                                             |
|           W    W    AA    RRRRR   N    N  II  N    N   GGGG   !!!           |
|           W    W   A  A   R    R  NN   N  II  NN   N  G    G  !!!           |
|           W    W  A    A  R    R  N N  N  II  N N  N  G       !!!           |
|           W WW W  AAAAAA  RRRRR   N  N N  II  N  N N  G  GGG   !            |
|           WW  WW  A    A  R   R   N   NN  II  N   NN  G    G                |
|           W    W  A    A  R    R  N    N  II  N    N   GGGG   !!!           |
|                                                                             |
|      For optimal performance we recommend to set                            |
|        NCORE= 4 - approx SQRT( number of cores)                             |
|      NCORE specifies how many cores store one orbital (NPAR=cpu/NCORE).     |
|      This setting can  greatly improve the performance of VASP for DFT.     |
|      The default, NPAR=number of cores might be grossly inefficient         |
|      on modern multi-core architectures or massively parallel machines.     |
|      Do your own testing !!!!                                               |
|      Unfortunately you need to use the default for GW and RPA calculations. |
|      (for HF NCORE is supported but not extensively tested yet)             |
|                                                                             |
 ----------------------------------------------------------------------------- 

 LDA part: xc-table for Pade appr. of Perdew
 POSCAR, INCAR and KPOINTS ok, starting setup
 WARNING: small aliasing (wrap around) errors must be expected
 FFT: planning ...
 WAVECAR not read
 entering main loop
       N       E                     dE             d eps       ncg     rms          rms(c)
DAV:   1     0.901394466247E+03    0.90139E+03   -0.42342E+04 10232   0.329E+03
DAV:   2     0.145416721351E+03   -0.75598E+03   -0.72718E+03  9928   0.779E+02
DAV:   3    -0.280362361598E+02   -0.17345E+03   -0.16845E+03 11396   0.265E+02
DAV:   4    -0.434202681213E+02   -0.15384E+02   -0.15211E+02 12172   0.796E+01
DAV:   5    -0.439182302892E+02   -0.49796E+00   -0.49556E+00 12844   0.141E+01    0.157E+01
DAV:   6    -0.373146544213E+02    0.66036E+01   -0.21189E+01 18956   0.753E+01    0.743E+00
DAV:   7    -0.377363041188E+02   -0.42165E+00   -0.68993E+00 10656   0.181E+01    0.473E+00
DAV:   8    -0.376724922976E+02    0.63812E-01   -0.97905E-01 16296   0.888E+00    0.208E+00
DAV:   9    -0.376403396157E+02    0.32153E-01   -0.20410E-01 14428   0.578E+00    0.574E-01
DAV:  10    -0.376422678679E+02   -0.19283E-02   -0.41306E-02 10864   0.168E+00    0.331E-01
DAV:  11    -0.376431460681E+02   -0.87820E-03   -0.84186E-03 13512   0.106E+00    0.155E-01
DAV:  12    -0.376431779284E+02   -0.31860E-04   -0.13490E-03 11864   0.633E-01    0.785E-02
DAV:  13    -0.376432157242E+02   -0.37796E-04   -0.86362E-04 14424   0.201E-01    0.347E-02
DAV:  14    -0.376432149429E+02    0.78130E-06   -0.15012E-04 12844   0.109E-01    0.148E-02
DAV:  15    -0.376432223936E+02   -0.74507E-05   -0.47266E-05 11672   0.460E-02    0.911E-03
DAV:  16    -0.376432251245E+02   -0.27310E-05   -0.11245E-05 12504   0.272E-02    0.345E-03
DAV:  17    -0.376432257609E+02   -0.63631E-06   -0.22776E-06 12136   0.125E-02    0.196E-03
DAV:  18    -0.376432258510E+02   -0.90133E-07   -0.51313E-07 13340   0.775E-03    0.916E-04
DAV:  19    -0.376432257900E+02    0.60996E-07   -0.11685E-07 11756   0.427E-03    0.269E-04
DAV:  20    -0.376432257998E+02   -0.98180E-08   -0.14135E-08  7252   0.152E-03
   1 F= -.37643226E+02 E0= -.37643226E+02  d E =-.376432E+02
 curvature:   0.00 expect dE= 0.000E+00 dE for cont linesearch  0.000E+00
 trial: gam= 0.00000 g(F)=  0.426E-04 g(S)=  0.291E-04 ort = 0.000E+00 (trialstep = 0.100E+01)
 search vector abs. value=  0.717E-04
 bond charge predicted
       N       E                     dE             d eps       ncg     rms          rms(c)
DAV:   1    -0.376433470535E+02   -0.12126E-03   -0.11974E-02  9912   0.735E-01    0.808E-02
DAV:   2    -0.376432990348E+02    0.48019E-04   -0.82989E-04 12056   0.349E-01    0.420E-02
DAV:   3    -0.376432771184E+02    0.21916E-04   -0.76153E-05 13668   0.116E-01    0.197E-02
DAV:   4    -0.376432695933E+02    0.75250E-05   -0.15748E-05 12856   0.673E-02    0.559E-03
DAV:   5    -0.376432694612E+02    0.13215E-06   -0.58525E-06 11008   0.299E-02    0.184E-03
DAV:   6    -0.376432695260E+02   -0.64808E-07   -0.11504E-06 12116   0.135E-02    0.142E-03
DAV:   7    -0.376432695364E+02   -0.10437E-07   -0.13543E-07 12244   0.715E-03    0.762E-04
DAV:   8    -0.376432695577E+02   -0.21230E-07   -0.43855E-08  9528   0.273E-03    0.242E-04
DAV:   9    -0.376432695602E+02   -0.25721E-08   -0.11660E-08  5976   0.161E-03
   2 F= -.37643270E+02 E0= -.37643270E+02  d E =-.437604E-04
 trial-energy change:   -0.000044  1 .order   -0.000046   -0.000072   -0.000020
 step:   1.6422(harm=  1.3870)  dis= 0.00088  next Energy=   -37.643275 (dE=-0.496E-04)
 bond charge predicted
       N       E                     dE             d eps       ncg     rms          rms(c)
DAV:   1    -0.376433032456E+02   -0.33688E-04   -0.49360E-03  9896   0.471E-01    0.519E-02
DAV:   2    -0.376432835264E+02    0.19719E-04   -0.34126E-04 12048   0.224E-01    0.269E-02
DAV:   3    -0.376432742730E+02    0.92534E-05   -0.31286E-05 13688   0.743E-02    0.126E-02
DAV:   4    -0.376432710594E+02    0.32136E-05   -0.64707E-06 12852   0.431E-02    0.357E-03
DAV:   5    -0.376432709737E+02    0.85700E-07   -0.24079E-06 11020   0.191E-02    0.118E-03
DAV:   6    -0.376432709992E+02   -0.25589E-07   -0.47105E-07 12108   0.865E-03    0.912E-04
DAV:   7    -0.376432710062E+02   -0.69699E-08   -0.52089E-08  8836   0.460E-03
   3 F= -.37643271E+02 E0= -.37643271E+02  d E =-.452064E-04
 curvature:  -0.39 expect dE=-0.325E-04 dE for cont linesearch -0.109E-05
 ZBRENT: interpolating
 opt :   1.3762  next Energy=   -37.643273 (dE=-0.471E-04)
 bond charge predicted
       N       E                     dE             d eps       ncg     rms          rms(c)
DAV:   1    -0.376432780091E+02   -0.70099E-05   -0.84562E-04  9896   0.195E-01    0.215E-02
DAV:   2    -0.376432745767E+02    0.34324E-05   -0.58810E-05 12056   0.930E-02    0.111E-02
DAV:   3    -0.376432733515E+02    0.12252E-05   -0.53357E-06 13632   0.307E-02    0.525E-03
DAV:   4    -0.376432729880E+02    0.36359E-06   -0.11031E-06 12884   0.179E-02    0.147E-03
DAV:   5    -0.376432730295E+02   -0.41562E-07   -0.41089E-07 10924   0.795E-03    0.486E-04
DAV:   6    -0.376432730364E+02   -0.68912E-08   -0.79752E-08 10764   0.351E-03
   4 F= -.37643273E+02 E0= -.37643273E+02  d E =-.472366E-04
 curvature:  -0.67 expect dE=-0.379E-04 dE for cont linesearch -0.171E-08
 trial: gam= 0.77889 g(F)=  0.473E-04 g(S)=  0.892E-05 ort = 0.426E-06 (trialstep = 0.768E+00)
 search vector abs. value=  0.100E-03
 bond charge predicted
       N       E                     dE             d eps       ncg     rms          rms(c)
DAV:   1    -0.376433386465E+02   -0.65617E-04   -0.99450E-03  9860   0.574E-01    0.543E-02
DAV:   2    -0.376433230317E+02    0.15615E-04   -0.33670E-04 12224   0.205E-01    0.317E-02
DAV:   3    -0.376433059471E+02    0.17085E-04   -0.36921E-05 12864   0.900E-02    0.125E-02
DAV:   4    -0.376433035763E+02    0.23708E-05   -0.12057E-05 12344   0.513E-02    0.275E-03
DAV:   5    -0.376433038425E+02   -0.26614E-06   -0.31630E-06 11104   0.221E-02    0.167E-03
DAV:   6    -0.376433038804E+02   -0.37957E-07   -0.42028E-07 12188   0.991E-03    0.107E-03
DAV:   7    -0.376433039091E+02   -0.28632E-07   -0.93375E-08 11460   0.501E-03    0.425E-04
DAV:   8    -0.376433039227E+02   -0.13597E-07   -0.25255E-08  7624   0.220E-03    0.169E-04
DAV:   9    -0.376433039242E+02   -0.15389E-08   -0.90950E-09  5912   0.112E-03
   5 F= -.37643304E+02 E0= -.37643304E+02  d E =-.308878E-04
 trial-energy change:   -0.000031  1 .order   -0.000031   -0.000043   -0.000019
 step:   1.4227(harm=  1.3534)  dis= 0.00076  next Energy=   -37.643312 (dE=-0.388E-04)
 bond charge predicted
       N       E                     dE             d eps       ncg     rms          rms(c)
DAV:   1    -0.376433362126E+02   -0.32290E-04   -0.72424E-03  9860   0.490E-01    0.463E-02
DAV:   2    -0.376433249102E+02    0.11302E-04   -0.24499E-04 12224   0.175E-01    0.271E-02
DAV:   3    -0.376433124259E+02    0.12484E-04   -0.26853E-05 12848   0.772E-02    0.107E-02
DAV:   4    -0.376433106986E+02    0.17274E-05   -0.88242E-06 12320   0.440E-02    0.235E-03
DAV:   5    -0.376433108994E+02   -0.20078E-06   -0.23062E-06 11116   0.188E-02    0.143E-03
DAV:   6    -0.376433109305E+02   -0.31095E-07   -0.30645E-07 12184   0.849E-03    0.919E-04
DAV:   7    -0.376433109547E+02   -0.24254E-07   -0.66543E-08 10144   0.428E-03    0.359E-04
DAV:   8    -0.376433109667E+02   -0.12009E-07   -0.18989E-08  6840   0.191E-03    0.143E-04
DAV:   9    -0.376433109679E+02   -0.11551E-08   -0.67447E-09  5828   0.992E-04
   6 F= -.37643311E+02 E0= -.37643311E+02  d E =-.379315E-04
 curvature:  -1.18 expect dE=-0.448E-04 dE for cont linesearch -0.853E-07
 trial: gam= 0.72653 g(F)=  0.272E-04 g(S)=  0.107E-04 ort =-0.269E-05 (trialstep = 0.899E+00)
 search vector abs. value=  0.869E-04
 bond charge predicted
       N       E                     dE             d eps       ncg     rms          rms(c)
DAV:   1    -0.376433696454E+02   -0.58679E-04   -0.12528E-02  9856   0.668E-01    0.576E-02
DAV:   2    -0.376433502222E+02    0.19423E-04   -0.40323E-04 11964   0.245E-01    0.328E-02
DAV:   3    -0.376433342014E+02    0.16021E-04   -0.43208E-05 13552   0.758E-02    0.129E-02
DAV:   4    -0.376433315098E+02    0.26915E-05   -0.10909E-05 12024   0.393E-02    0.231E-03
DAV:   5    -0.376433317244E+02   -0.21458E-06   -0.29301E-06 11060   0.174E-02    0.172E-03
DAV:   6    -0.376433317054E+02    0.19018E-07   -0.23819E-07 12136   0.866E-03    0.108E-03
DAV:   7    -0.376433316825E+02    0.22934E-07   -0.57213E-08 10928   0.410E-03    0.339E-04
DAV:   8    -0.376433316773E+02    0.51750E-08   -0.19348E-08  7236   0.170E-03
   7 F= -.37643332E+02 E0= -.37643332E+02  d E =-.207094E-04
 trial-energy change:   -0.000021  1 .order   -0.000021   -0.000032   -0.000009
 step:   1.2525(harm=  1.2525)  dis= 0.00091  next Energy=   -37.643333 (dE=-0.225E-04)
 bond charge predicted
       N       E                     dE             d eps       ncg     rms          rms(c)
DAV:   1    -0.376433392760E+02   -0.75935E-05   -0.19430E-03  9856   0.263E-01    0.227E-02
DAV:   2    -0.376433362102E+02    0.30658E-05   -0.62540E-05 11972   0.966E-02    0.129E-02
DAV:   3    -0.376433338441E+02    0.23661E-05   -0.67089E-06 13568   0.299E-02    0.508E-03
DAV:   4    -0.376433334677E+02    0.37641E-06   -0.16910E-06 11988   0.156E-02    0.919E-04
DAV:   5    -0.376433334948E+02   -0.27101E-07   -0.45719E-07 11096   0.695E-03    0.682E-04
DAV:   6    -0.376433334874E+02    0.74110E-08   -0.37104E-08  8868   0.347E-03
   8 F= -.37643333E+02 E0= -.37643333E+02  d E =-.225195E-04
 curvature:  -1.52 expect dE=-0.346E-04 dE for cont linesearch -0.151E-08
 trial: gam= 0.52343 g(F)=  0.192E-04 g(S)=  0.361E-05 ort =-0.294E-06 (trialstep = 0.969E+00)
 search vector abs. value=  0.463E-04
 bond charge predicted
       N       E                     dE             d eps       ncg     rms          rms(c)
DAV:   1    -0.376433510661E+02   -0.17571E-04   -0.89344E-03  9920   0.538E-01    0.335E-02
DAV:   2    -0.376433542595E+02   -0.31934E-05   -0.21462E-04 11468   0.162E-01    0.173E-02
DAV:   3    -0.376433508834E+02    0.33761E-05   -0.20511E-05 12128   0.585E-02    0.874E-03
DAV:   4    -0.376433496211E+02    0.12623E-05   -0.42521E-06 12944   0.388E-02    0.176E-03
DAV:   5    -0.376433496990E+02   -0.77899E-07   -0.13000E-06 10960   0.155E-02    0.851E-04
DAV:   6    -0.376433497247E+02   -0.25657E-07   -0.22400E-07 12056   0.548E-03    0.680E-04
DAV:   7    -0.376433497343E+02   -0.95833E-08   -0.23896E-08  7556   0.313E-03
   9 F= -.37643350E+02 E0= -.37643350E+02  d E =-.162469E-04
 trial-energy change:   -0.000016  1 .order   -0.000017   -0.000022   -0.000013
 step:   2.2748(harm=  2.2748)  dis= 0.00137  next Energy=   -37.643359 (dE=-0.257E-04)
 bond charge predicted
       N       E                     dE             d eps       ncg     rms          rms(c)
DAV:   1    -0.376433609521E+02   -0.11227E-04   -0.16205E-02  9920   0.724E-01    0.452E-02
DAV:   2    -0.376433667088E+02   -0.57567E-05   -0.38934E-04 11492   0.218E-01    0.233E-02
DAV:   3    -0.376433607018E+02    0.60069E-05   -0.37277E-05 12080   0.783E-02    0.118E-02
DAV:   4    -0.376433584309E+02    0.22709E-05   -0.76874E-06 13032   0.518E-02    0.234E-03
DAV:   5    -0.376433585744E+02   -0.14346E-06   -0.23426E-06 10952   0.206E-02    0.114E-03
DAV:   6    -0.376433586150E+02   -0.40596E-07   -0.39798E-07 12244   0.736E-03    0.914E-04
DAV:   7    -0.376433586277E+02   -0.12734E-07   -0.44625E-08  8956   0.421E-03    0.435E-04
DAV:   8    -0.376433586459E+02   -0.18233E-07   -0.15964E-08  6172   0.126E-03    0.117E-04
DAV:   9    -0.376433586480E+02   -0.20982E-08   -0.51905E-09  5592   0.743E-04
  10 F= -.37643359E+02 E0= -.37643359E+02  d E =-.251607E-04
 curvature:  -2.33 expect dE=-0.509E-04 dE for cont linesearch -0.521E-08
 trial: gam= 0.98837 g(F)=  0.173E-04 g(S)=  0.461E-05 ort = 0.322E-06 (trialstep = 0.841E+00)
 search vector abs. value=  0.677E-04
 bond charge predicted
       N       E                     dE             d eps       ncg     rms          rms(c)
DAV:   1    -0.376433659137E+02   -0.72677E-05   -0.10524E-02  9968   0.551E-01    0.258E-02
DAV:   2    -0.376433738911E+02   -0.79774E-05   -0.17710E-04 11232   0.113E-01    0.148E-02
DAV:   3    -0.376433717418E+02    0.21493E-05   -0.11659E-05 12916   0.339E-02    0.688E-03
DAV:   4    -0.376433710816E+02    0.66018E-06   -0.25140E-06 12640   0.236E-02    0.152E-03
DAV:   5    -0.376433711441E+02   -0.62490E-07   -0.85273E-07 10736   0.103E-02    0.779E-04
DAV:   6    -0.376433711463E+02   -0.22637E-08   -0.12222E-07 12064   0.419E-03    0.518E-04
DAV:   7    -0.376433711408E+02    0.55024E-08   -0.14519E-08  6748   0.274E-03
  11 F= -.37643371E+02 E0= -.37643371E+02  d E =-.124928E-04
 trial-energy change:   -0.000012  1 .order   -0.000012   -0.000019   -0.000006
 step:   1.1847(harm=  1.2314)  dis= 0.00073  next Energy=   -37.643372 (dE=-0.137E-04)
 bond charge predicted
       N       E                     dE             d eps       ncg     rms          rms(c)
DAV:   1    -0.376433717263E+02   -0.57996E-06   -0.17567E-03  9972   0.225E-01    0.105E-02
DAV:   2    -0.376433730239E+02   -0.12976E-05   -0.29570E-05 11240   0.463E-02    0.608E-03
DAV:   3    -0.376433727140E+02    0.30992E-06   -0.19625E-06 12920   0.140E-02    0.281E-03
DAV:   4    -0.376433726149E+02    0.99084E-07   -0.42513E-07 12656   0.943E-03    0.629E-04
DAV:   5    -0.376433726285E+02   -0.13604E-07   -0.14381E-07 10720   0.411E-03    0.322E-04
DAV:   6    -0.376433726269E+02    0.15521E-08   -0.17410E-08  7148   0.159E-03
  12 F= -.37643373E+02 E0= -.37643373E+02  d E =-.139789E-04
 curvature:  -1.85 expect dE=-0.240E-04 dE for cont linesearch -0.240E-07
 trial: gam= 0.56562 g(F)=  0.120E-04 g(S)=  0.103E-05 ort = 0.937E-06 (trialstep = 0.910E+00)
 search vector abs. value=  0.357E-04
 bond charge predicted
       N       E                     dE             d eps       ncg     rms          rms(c)
DAV:   1    -0.376433782433E+02   -0.56148E-05   -0.67815E-03  9920   0.454E-01    0.237E-02
DAV:   2    -0.376433829861E+02   -0.47428E-05   -0.15489E-04 11444   0.125E-01    0.118E-02
DAV:   3    -0.376433824261E+02    0.56000E-06   -0.10399E-05 12752   0.347E-02    0.612E-03
DAV:   4    -0.376433819082E+02    0.51785E-06   -0.16162E-06 13888   0.202E-02    0.178E-03
DAV:   5    -0.376433819608E+02   -0.52603E-07   -0.66557E-07 11216   0.833E-03    0.710E-04
DAV:   6    -0.376433819613E+02   -0.42655E-09   -0.80267E-08 11556   0.388E-03
  13 F= -.37643382E+02 E0= -.37643382E+02  d E =-.933432E-05
 trial-energy change:   -0.000009  1 .order   -0.000009   -0.000012   -0.000006
 step:   1.4838(harm=  1.7272)  dis= 0.00056  next Energy=   -37.643384 (dE=-0.112E-04)
 bond charge predicted
       N       E                     dE             d eps       ncg     rms          rms(c)
DAV:   1    -0.376433830827E+02   -0.11219E-05   -0.27003E-03  9920   0.286E-01    0.150E-02
DAV:   2    -0.376433849493E+02   -0.18667E-05   -0.61798E-05 11468   0.791E-02    0.745E-03
DAV:   3    -0.376433847746E+02    0.17474E-06   -0.41637E-06 12744   0.220E-02    0.386E-03
DAV:   4    -0.376433845910E+02    0.18359E-06   -0.64277E-07 13912   0.130E-02    0.113E-03
DAV:   5    -0.376433846202E+02   -0.29238E-07   -0.26334E-07 11228   0.533E-03    0.448E-04
DAV:   6    -0.376433846197E+02    0.58981E-09   -0.31375E-08  8948   0.246E-03
  14 F= -.37643385E+02 E0= -.37643385E+02  d E =-.119927E-04
 curvature:  -2.08 expect dE=-0.136E-04 dE for cont linesearch -0.270E-06
 ZBRENT: increasing intervall
 opt :   2.6319  next Energy=   -37.643382 (dE=-0.959E-05)
 bond charge predicted
       N       E                     dE             d eps       ncg     rms          rms(c)
DAV:   1    -0.376433766532E+02    0.79670E-05   -0.10798E-02  9920   0.572E-01    0.299E-02
DAV:   2    -0.376433842526E+02   -0.75994E-05   -0.24675E-04 11448   0.158E-01    0.149E-02
DAV:   3    -0.376433832987E+02    0.95390E-06   -0.16574E-05 12764   0.437E-02    0.772E-03
DAV:   4    -0.376433824383E+02    0.86042E-06   -0.25704E-06 13896   0.256E-02    0.225E-03
DAV:   5    -0.376433825071E+02   -0.68846E-07   -0.10575E-06 11244   0.105E-02    0.895E-04
DAV:   6    -0.376433825090E+02   -0.18199E-08   -0.12946E-07 12088   0.488E-03    0.538E-04
DAV:   7    -0.376433825014E+02    0.75393E-08   -0.14891E-08  6292   0.233E-03
  15 F= -.37643383E+02 E0= -.37643382E+02  d E =-.987448E-05
 curvature:  18.50 expect dE= 0.444E-03 dE for cont linesearch  0.225E-04
 ZBRENT: bracketing found
 ZBRENT: interpolating
 opt :   1.7664  next Energy=   -37.643385 (dE=-0.123E-04)
 bond charge predicted
       N       E                     dE             d eps       ncg     rms          rms(c)
DAV:   1    -0.376433820183E+02    0.49066E-06   -0.61343E-03  9920   0.432E-01    0.225E-02
DAV:   2    -0.376433865628E+02   -0.45445E-05   -0.14047E-04 11436   0.120E-01    0.112E-02
DAV:   3    -0.376433856813E+02    0.88155E-06   -0.94209E-06 12760   0.330E-02    0.582E-03
DAV:   4    -0.376433850116E+02    0.66962E-06   -0.14519E-06 13872   0.191E-02    0.169E-03
DAV:   5    -0.376433849808E+02    0.30848E-07   -0.59619E-07 11224   0.782E-03    0.669E-04
DAV:   6    -0.376433849864E+02   -0.56061E-08   -0.71379E-08 11288   0.367E-03
  16 F= -.37643385E+02 E0= -.37643385E+02  d E =-.123595E-04
 curvature:  -0.25 expect dE=-0.202E-05 dE for cont linesearch -0.159E-08
 trial: gam= 0.67396 g(F)=  0.408E-05 g(S)=  0.402E-05 ort = 0.476E-06 (trialstep = 0.108E+01)
 search vector abs. value=  0.250E-04
 bond charge predicted
       N       E                     dE             d eps       ncg     rms          rms(c)
DAV:   1    -0.376433965761E+02   -0.11595E-04   -0.64855E-03 10352   0.508E-01    0.366E-02
DAV:   2    -0.376433946481E+02    0.19281E-05   -0.27131E-04 11692   0.197E-01    0.161E-02
DAV:   3    -0.376433920066E+02    0.26415E-05   -0.18044E-05 12564   0.501E-02    0.800E-03
DAV:   4    -0.376433904735E+02    0.15331E-05   -0.31233E-06 14160   0.242E-02    0.216E-03
DAV:   5    -0.376433904016E+02    0.71936E-07   -0.11894E-06 11396   0.981E-03    0.844E-04
DAV:   6    -0.376433904134E+02   -0.11875E-07   -0.10356E-07 10864   0.447E-03    0.535E-04
DAV:   7    -0.376433904246E+02   -0.11116E-07   -0.10789E-08  6096   0.220E-03    0.286E-04
DAV:   8    -0.376433904405E+02   -0.15962E-07   -0.86165E-09  5744   0.913E-04    0.101E-04
DAV:   9    -0.376433904398E+02    0.72669E-09   -0.36513E-09  5500   0.658E-04
  17 F= -.37643390E+02 E0= -.37643390E+02  d E =-.545339E-05
 trial-energy change:   -0.000005  1 .order   -0.000006   -0.000009   -0.000002
 step:   1.4203(harm=  1.3848)  dis= 0.00034  next Energy=   -37.643391 (dE=-0.576E-05)
 bond charge predicted
       N       E                     dE             d eps       ncg     rms          rms(c)
DAV:   1    -0.376433913700E+02   -0.92944E-06   -0.63816E-04 10352   0.159E-01    0.115E-02
DAV:   2    -0.376433912046E+02    0.16537E-06   -0.26651E-05 11704   0.615E-02    0.504E-03
DAV:   3    -0.376433908652E+02    0.33942E-06   -0.17702E-06 12512   0.157E-02    0.250E-03
DAV:   4    -0.376433906623E+02    0.20283E-06   -0.30608E-07 14128   0.752E-03    0.677E-04
DAV:   5    -0.376433906362E+02    0.26153E-07   -0.11667E-07 10808   0.303E-03    0.264E-04
DAV:   6    -0.376433906390E+02   -0.28467E-08   -0.90335E-09  5876   0.139E-03
  18 F= -.37643391E+02 E0= -.37643391E+02  d E =-.565263E-05
 curvature:  -2.03 expect dE=-0.777E-05 dE for cont linesearch -0.149E-07
 trial: gam= 0.53626 g(F)=  0.283E-05 g(S)=  0.101E-05 ort =-0.428E-06 (trialstep = 0.115E+01)
 search vector abs. value=  0.106E-04
 bond charge predicted
       N       E                     dE             d eps       ncg     rms          rms(c)
DAV:   1    -0.376433877621E+02    0.28741E-05   -0.33105E-03  9864   0.303E-01    0.976E-03
DAV:   2    -0.376433936921E+02   -0.59300E-05   -0.70586E-05 11860   0.584E-02    0.520E-03
DAV:   3    -0.376433936130E+02    0.79085E-07   -0.25338E-06 12108   0.141E-02    0.310E-03
DAV:   4    -0.376433934639E+02    0.14910E-06   -0.49555E-07 12888   0.112E-02    0.118E-03
DAV:   5    -0.376433934817E+02   -0.17758E-07   -0.24622E-07 11548   0.507E-03    0.478E-04
DAV:   6    -0.376433934826E+02   -0.93132E-09   -0.38603E-08 10036   0.197E-03
  19 F= -.37643393E+02 E0= -.37643393E+02  d E =-.284356E-05
 trial-energy change:   -0.000003  1 .order   -0.000003   -0.000004   -0.000001
 step:   1.6990(harm=  1.7749)  dis= 0.00037  next Energy=   -37.643394 (dE=-0.320E-05)
 bond charge predicted
       N       E                     dE             d eps       ncg     rms          rms(c)
DAV:   1    -0.376433925414E+02    0.94028E-06   -0.75860E-04  9864   0.145E-01    0.474E-03
DAV:   2    -0.376433939073E+02   -0.13659E-05   -0.16280E-05 11852   0.280E-02    0.252E-03
DAV:   3    -0.376433938984E+02    0.88621E-08   -0.58138E-07 12136   0.699E-03    0.149E-03
DAV:   4    -0.376433938633E+02    0.35081E-07   -0.11359E-07 12904   0.526E-03    0.562E-04
DAV:   5    -0.376433938689E+02   -0.55834E-08   -0.54490E-08 10772   0.253E-03
  20 F= -.37643394E+02 E0= -.37643394E+02  d E =-.322987E-05
 curvature:  -2.56 expect dE=-0.415E-05 dE for cont linesearch -0.128E-08
 trial: gam= 0.33141 g(F)=  0.135E-05 g(S)=  0.272E-06 ort = 0.726E-07 (trialstep = 0.126E+01)
 search vector abs. value=  0.283E-05
 bond charge predicted
       N       E                     dE             d eps       ncg     rms          rms(c)
DAV:   1    -0.376433937962E+02    0.67066E-07   -0.93493E-04  9864   0.171E-01    0.918E-03
DAV:   2    -0.376433954384E+02   -0.16421E-05   -0.26791E-05 12636   0.421E-02    0.527E-03
DAV:   3    -0.376433951397E+02    0.29872E-06   -0.15484E-06 12068   0.124E-02    0.271E-03
DAV:   4    -0.376433950659E+02    0.73720E-07   -0.32571E-07 13008   0.778E-03    0.569E-04
DAV:   5    -0.376433950777E+02   -0.11749E-07   -0.10650E-07 11244   0.462E-03    0.304E-04
DAV:   6    -0.376433950821E+02   -0.44602E-08   -0.16490E-08  6640   0.174E-03
  21 F= -.37643395E+02 E0= -.37643395E+02  d E =-.121325E-05
 trial-energy change:   -0.000001  1 .order   -0.000001   -0.000002   -0.000000
 step:   1.3105(harm=  1.3303)  dis= 0.00012  next Energy=   -37.643395 (dE=-0.122E-05)
 bond charge predicted
       N       E                     dE             d eps       ncg     rms          rms(c)
DAV:   1    -0.376433950873E+02   -0.96215E-08   -0.15992E-06  9988   0.719E-03    0.420E-04
DAV:   2    -0.376433950934E+02   -0.60586E-08   -0.50476E-08 11292   0.225E-03
  22 F= -.37643395E+02 E0= -.37643395E+02  d E =-.122447E-05
 curvature:  -1.05 expect dE=-0.173E-05 dE for cont linesearch -0.191E-08
 trial: gam= 1.00504 g(F)=  0.148E-05 g(S)=  0.160E-06 ort = 0.717E-07 (trialstep = 0.773E+00)
 search vector abs. value=  0.465E-05
 bond charge predicted
       N       E                     dE             d eps       ncg     rms          rms(c)
DAV:   1    -0.376433954364E+02   -0.34909E-06   -0.57262E-04  9864   0.136E-01    0.786E-03
DAV:   2    -0.376433962864E+02   -0.85005E-06   -0.17043E-05 12016   0.340E-02    0.446E-03
DAV:   3    -0.376433961077E+02    0.17871E-06   -0.10192E-06 13124   0.933E-03    0.212E-03
DAV:   4    -0.376433960409E+02    0.66878E-07   -0.20347E-07 13540   0.570E-03    0.386E-04
DAV:   5    -0.376433960476E+02   -0.67248E-08   -0.71958E-08 10692   0.256E-03
  23 F= -.37643396E+02 E0= -.37643396E+02  d E =-.954216E-06
 trial-energy change:   -0.000001  1 .order   -0.000001   -0.000001   -0.000001
 step:   1.3648(harm=  1.3648)  dis= 0.00023  next Energy=   -37.643396 (dE=-0.117E-05)
 bond charge predicted
       N       E                     dE             d eps       ncg     rms          rms(c)
DAV:   1    -0.376433959020E+02    0.13889E-06   -0.33549E-04  9868   0.104E-01    0.600E-03
DAV:   2    -0.376433964144E+02   -0.51248E-06   -0.10035E-05 12008   0.259E-02    0.337E-03
DAV:   3    -0.376433963212E+02    0.93249E-07   -0.58875E-07 13184   0.698E-03    0.162E-03
DAV:   4    -0.376433962814E+02    0.39815E-07   -0.11642E-07 13484   0.435E-03    0.298E-04
DAV:   5    -0.376433962857E+02   -0.43074E-08   -0.42140E-08  9808   0.201E-03
  24 F= -.37643396E+02 E0= -.37643396E+02  d E =-.119232E-05
 curvature:  -1.85 expect dE=-0.187E-05 dE for cont linesearch -0.419E-09
 trial: gam= 0.62594 g(F)=  0.774E-06 g(S)=  0.240E-06 ort = 0.325E-07 (trialstep = 0.891E+00)
 search vector abs. value=  0.287E-05
 bond charge predicted
       N       E                     dE             d eps       ncg     rms          rms(c)
DAV:   1    -0.376433967353E+02   -0.45391E-06   -0.47034E-04  9880   0.126E-01    0.786E-03
DAV:   2    -0.376433972720E+02   -0.53673E-06   -0.15382E-05 11976   0.390E-02    0.443E-03
DAV:   3    -0.376433970529E+02    0.21912E-06   -0.11080E-06 11996   0.129E-02    0.225E-03
DAV:   4    -0.376433969293E+02    0.12355E-06   -0.24061E-07 13052   0.756E-03    0.450E-04
DAV:   5    -0.376433969266E+02    0.27517E-08   -0.86561E-08 10652   0.322E-03
  25 F= -.37643397E+02 E0= -.37643397E+02  d E =-.640906E-06
 trial-energy change:   -0.000001  1 .order   -0.000001   -0.000001   -0.000000
 step:   1.6836(harm=  1.6836)  dis= 0.00027  next Energy=   -37.643397 (dE=-0.870E-06)
 bond charge predicted
       N       E                     dE             d eps       ncg     rms          rms(c)
DAV:   1    -0.376433969708E+02   -0.41467E-07   -0.37150E-04  9880   0.112E-01    0.703E-03
DAV:   2    -0.376433974038E+02   -0.43303E-06   -0.12210E-05 11980   0.347E-02    0.393E-03
DAV:   3    -0.376433972268E+02    0.17706E-06   -0.87838E-07 12052   0.113E-02    0.200E-03
DAV:   4    -0.376433971281E+02    0.98721E-07   -0.18641E-07 13092   0.664E-03    0.401E-04
DAV:   5    -0.376433971251E+02    0.29354E-08   -0.68877E-08 10656   0.279E-03
  26 F= -.37643397E+02 E0= -.37643397E+02  d E =-.839434E-06
 curvature:  -2.34 expect dE=-0.916E-06 dE for cont linesearch -0.130E-08
 trial: gam= 0.37238 g(F)=  0.225E-06 g(S)=  0.167E-06 ort = 0.400E-07 (trialstep = 0.105E+01)
 search vector abs. value=  0.820E-06
 bond charge predicted
       N       E                     dE             d eps       ncg     rms          rms(c)
DAV:   1    -0.376433978567E+02   -0.72868E-06   -0.19361E-04 10024   0.100E-01    0.914E-03
DAV:   2    -0.376433974206E+02    0.43610E-06   -0.14913E-05 11140   0.473E-02    0.368E-03
DAV:   3    -0.376433974096E+02    0.11029E-07   -0.10933E-06 13340   0.121E-02    0.183E-03
DAV:   4    -0.376433973915E+02    0.18058E-07   -0.15695E-07 13744   0.598E-03    0.664E-04
DAV:   5    -0.376433974069E+02   -0.15393E-07   -0.56454E-08 10308   0.240E-03    0.215E-04
DAV:   6    -0.376433974076E+02   -0.69713E-09   -0.83877E-09  5704   0.110E-03
  27 F= -.37643397E+02 E0= -.37643397E+02  d E =-.282513E-06
 trial-energy change:   -0.000000  1 .order   -0.000000   -0.000000   -0.000000
 step:   1.5311(harm=  1.5311)  dis= 0.00011  next Energy=   -37.643397 (dE=-0.311E-06)
 bond charge predicted
       N       E                     dE             d eps       ncg     rms          rms(c)
DAV:   1    -0.376433975216E+02   -0.11463E-06   -0.40682E-05 10024   0.460E-02    0.421E-03
DAV:   2    -0.376433974147E+02    0.10691E-06   -0.31225E-06 11176   0.217E-02    0.169E-03
DAV:   3    -0.376433974301E+02   -0.15409E-07   -0.22895E-07 13368   0.550E-03    0.836E-04
DAV:   4    -0.376433974347E+02   -0.46807E-08   -0.27072E-08  8636   0.269E-03
  28 F= -.37643397E+02 E0= -.37643397E+02  d E =-.309625E-06
 curvature:  -1.54 expect dE=-0.145E-05 dE for cont linesearch -0.287E-07
 trial: gam= 0.00000 g(F)=  0.186E-06 g(S)=  0.755E-06 ort =-0.123E-06 (trialstep = 0.998E+00)
 search vector abs. value=  0.941E-06
 bond charge predicted
       N       E                     dE             d eps       ncg     rms          rms(c)
DAV:   1    -0.376434058129E+02   -0.83828E-05   -0.16768E-04 13200   0.179E-01    0.207E-02
DAV:   2    -0.376433986953E+02    0.71176E-05   -0.33395E-05 12848   0.927E-02    0.816E-03
DAV:   3    -0.376433976096E+02    0.10857E-05   -0.32552E-06 16008   0.223E-02    0.359E-03
DAV:   4    -0.376433972269E+02    0.38268E-06   -0.49945E-07 15404   0.105E-02    0.124E-03
DAV:   5    -0.376433971651E+02    0.61795E-07   -0.16886E-07 10880   0.362E-03    0.517E-04
DAV:   6    -0.376433971661E+02   -0.92859E-09   -0.25291E-08  7124   0.134E-03
  29 F= -.37643397E+02 E0= -.37643397E+02  d E =0.268677E-06
 trial-energy change:    0.000000  1 .order   -0.000000   -0.000001    0.000001
 step:   0.3118(harm=  0.5044)  dis= 0.00001  next Energy=   -37.643398 (dE=-0.138E-06)
 bond charge predicted
       N       E                     dE             d eps       ncg     rms          rms(c)
DAV:   1    -0.376434012251E+02   -0.40600E-05   -0.79835E-05 13200   0.123E-01    0.143E-02
DAV:   2    -0.376433978581E+02    0.33670E-05   -0.15826E-05 12824   0.636E-02    0.562E-03
DAV:   3    -0.376433975613E+02    0.29672E-06   -0.15344E-06 15888   0.153E-02    0.248E-03
DAV:   4    -0.376433974983E+02    0.63060E-07   -0.24427E-07 14996   0.718E-03    0.851E-04
DAV:   5    -0.376433975161E+02   -0.17797E-07   -0.81544E-08 10476   0.250E-03    0.358E-04
DAV:   6    -0.376433975145E+02    0.15448E-08   -0.10905E-08  5256   0.915E-04
  30 F= -.37643398E+02 E0= -.37643397E+02  d E =-.797904E-07
 curvature:  -0.21 expect dE=-0.258E-07 dE for cont linesearch -0.264E-08
 trial: gam= 0.01372 g(F)=  0.890E-07 g(S)=  0.317E-07 ort = 0.108E-06 (trialstep = 0.861E+00)
 search vector abs. value=  0.124E-06
 reached required accuracy - stopping structural energy minimisation
 writing wavefunctions
Thu Jan  6 00:42:49 CST 2022
