Wed Jan  5 23:41:25 CST 2022
 running on   48 total cores
 distrk:  each k-point on   48 cores,    1 groups
 distr:  one band on   24 cores,    2 groups
 using from now: INCAR     
 vasp.5.3.5 31Mar14 (build Jan 11 2016 19:50:55) complex                        
  
 POSCAR found type information on POSCAR  Zn Ga N  O 
 POSCAR found :  4 types and       8 ions
 scaLAPACK will be used

 ----------------------------------------------------------------------------- 
|                                                                             |
|           W    W    AA    RRRRR   N    N  II  N    N   GGGG   !!!           |
|           W    W   A  A   R    R  NN   N  II  NN   N  G    G  !!!           |
|           W    W  A    A  R    R  N N  N  II  N N  N  G       !!!           |
|           W WW W  AAAAAA  RRRRR   N  N N  II  N  N N  G  GGG   !            |
|           WW  WW  A    A  R   R   N   NN  II  N   NN  G    G                |
|           W    W  A    A  R    R  N    N  II  N    N   GGGG   !!!           |
|                                                                             |
|      For optimal performance we recommend to set                            |
|        NCORE= 4 - approx SQRT( number of cores)                             |
|      NCORE specifies how many cores store one orbital (NPAR=cpu/NCORE).     |
|      This setting can  greatly improve the performance of VASP for DFT.     |
|      The default, NPAR=number of cores might be grossly inefficient         |
|      on modern multi-core architectures or massively parallel machines.     |
|      Do your own testing !!!!                                               |
|      Unfortunately you need to use the default for GW and RPA calculations. |
|      (for HF NCORE is supported but not extensively tested yet)             |
|                                                                             |
 ----------------------------------------------------------------------------- 

 LDA part: xc-table for Pade appr. of Perdew
 POSCAR, INCAR and KPOINTS ok, starting setup
 WARNING: small aliasing (wrap around) errors must be expected
 FFT: planning ...
 WAVECAR not read
 entering main loop
       N       E                     dE             d eps       ncg     rms          rms(c)
DAV:   1     0.890160638798E+03    0.89016E+03   -0.41778E+04 10136   0.318E+03
DAV:   2     0.143206378605E+03   -0.74695E+03   -0.71820E+03  9992   0.758E+02
DAV:   3    -0.281317848013E+02   -0.17134E+03   -0.16692E+03 11336   0.261E+02
DAV:   4    -0.434695037635E+02   -0.15338E+02   -0.15142E+02 12056   0.785E+01
DAV:   5    -0.439694503487E+02   -0.49995E+00   -0.49770E+00 11880   0.137E+01    0.148E+01
DAV:   6    -0.382157517190E+02    0.57537E+01   -0.25408E+01 18748   0.679E+01    0.737E+00
DAV:   7    -0.384794310614E+02   -0.26368E+00   -0.57476E+00 10580   0.188E+01    0.478E+00
DAV:   8    -0.384464961226E+02    0.32935E-01   -0.13253E+00 15408   0.996E+00    0.217E+00
DAV:   9    -0.384133372342E+02    0.33159E-01   -0.20613E-01 13424   0.606E+00    0.832E-01
DAV:  10    -0.384044368971E+02    0.89003E-02   -0.10044E-01 15776   0.285E+00    0.243E-01
DAV:  11    -0.384054970259E+02   -0.10601E-02   -0.13365E-02 11452   0.103E+00    0.123E-01
DAV:  12    -0.384059797114E+02   -0.48269E-03   -0.17440E-03 12064   0.617E-01    0.645E-02
DAV:  13    -0.384061036111E+02   -0.12390E-03   -0.49723E-04 11412   0.303E-01    0.191E-02
DAV:  14    -0.384061394089E+02   -0.35798E-04   -0.11474E-04 11204   0.101E-01    0.123E-02
DAV:  15    -0.384061502741E+02   -0.10865E-04   -0.23376E-05 12004   0.648E-02    0.592E-03
DAV:  16    -0.384061538833E+02   -0.36093E-05   -0.10660E-05 13304   0.501E-02    0.457E-03
DAV:  17    -0.384061539585E+02   -0.75142E-07   -0.37432E-06 13148   0.168E-02    0.136E-03
DAV:  18    -0.384061540503E+02   -0.91849E-07   -0.77214E-07 12624   0.651E-03    0.108E-03
DAV:  19    -0.384061540649E+02   -0.14586E-07   -0.19871E-07 12660   0.415E-03    0.396E-04
DAV:  20    -0.384061540424E+02    0.22566E-07   -0.35041E-08  9040   0.195E-03    0.211E-04
DAV:  21    -0.384061540494E+02   -0.70008E-08   -0.61567E-09  6816   0.111E-03
   1 F= -.38406154E+02 E0= -.38402396E+02  d E =-.384062E+02
 curvature:   0.00 expect dE= 0.000E+00 dE for cont linesearch  0.000E+00
 trial: gam= 0.00000 g(F)=  0.499E-03 g(S)=  0.374E-04 ort = 0.000E+00 (trialstep = 0.100E+01)
 search vector abs. value=  0.536E-03
 bond charge predicted
       N       E                     dE             d eps       ncg     rms          rms(c)
DAV:   1    -0.384047259908E+02    0.14281E-02   -0.11789E-01  9892   0.201E+00    0.147E-01
DAV:   2    -0.384052866276E+02   -0.56064E-03   -0.91531E-03 11588   0.779E-01    0.949E-02
DAV:   3    -0.384052102592E+02    0.76368E-04   -0.51435E-04 11768   0.197E-01    0.618E-02
DAV:   4    -0.384051625254E+02    0.47734E-04   -0.14539E-04 11584   0.110E-01    0.176E-02
DAV:   5    -0.384051636789E+02   -0.11535E-05   -0.31721E-05 11700   0.542E-02    0.681E-03
DAV:   6    -0.384051637113E+02   -0.32390E-07   -0.33779E-06 12092   0.256E-02    0.311E-03
DAV:   7    -0.384051637131E+02   -0.17621E-08   -0.88498E-07 10956   0.866E-03    0.115E-03
DAV:   8    -0.384051637539E+02   -0.40874E-07   -0.21150E-07 13308   0.434E-03    0.486E-04
DAV:   9    -0.384051637532E+02    0.70759E-09   -0.28464E-08  8844   0.303E-03
   2 F= -.38405164E+02 E0= -.38401352E+02  d E =0.990296E-03
 trial-energy change:    0.000990  1 .order    0.000973   -0.000536    0.002482
 step:   0.1727(harm=  0.1777)  dis= 0.00050  next Energy=   -38.406200 (dE=-0.462E-04)
 bond charge predicted
       N       E                     dE             d eps       ncg     rms          rms(c)
DAV:   1    -0.384058973769E+02   -0.73362E-03   -0.80636E-02  9868   0.166E+00    0.123E-01
DAV:   2    -0.384062814405E+02   -0.38406E-03   -0.62619E-03 11612   0.644E-01    0.779E-02
DAV:   3    -0.384062302393E+02    0.51201E-04   -0.35607E-04 11772   0.165E-01    0.501E-02
DAV:   4    -0.384061993294E+02    0.30910E-04   -0.10053E-04 11616   0.912E-02    0.140E-02
DAV:   5    -0.384062004066E+02   -0.10772E-05   -0.21567E-05 11724   0.448E-02    0.551E-03
DAV:   6    -0.384062003058E+02    0.10082E-06   -0.22871E-06 11972   0.213E-02    0.252E-03
DAV:   7    -0.384062002283E+02    0.77522E-07   -0.61862E-07 10984   0.704E-03    0.940E-04
DAV:   8    -0.384062002322E+02   -0.39804E-08   -0.14251E-07 13376   0.360E-03    0.399E-04
DAV:   9    -0.384062002339E+02   -0.16466E-08   -0.17961E-08  7304   0.248E-03
   3 F= -.38406200E+02 E0= -.38402434E+02  d E =-.461845E-04
 curvature:  -0.09 expect dE=-0.416E-05 dE for cont linesearch -0.269E-09
 trial: gam= 0.08501 g(F)=  0.305E-04 g(S)=  0.164E-04 ort = 0.127E-05 (trialstep = 0.835E+00)
 search vector abs. value=  0.510E-04
 bond charge predicted
       N       E                     dE             d eps       ncg     rms          rms(c)
DAV:   1    -0.384062479762E+02   -0.47744E-04   -0.61350E-03 10072   0.472E-01    0.401E-02
DAV:   2    -0.384062420515E+02    0.59247E-05   -0.24432E-04 11912   0.186E-01    0.245E-02
DAV:   3    -0.384062343869E+02    0.76647E-05   -0.28566E-05 12116   0.646E-02    0.112E-02
DAV:   4    -0.384062322113E+02    0.21755E-05   -0.81773E-06 11312   0.301E-02    0.184E-03
DAV:   5    -0.384062323852E+02   -0.17387E-06   -0.23464E-06 11132   0.132E-02    0.126E-03
DAV:   6    -0.384062323672E+02    0.17963E-07   -0.12854E-07 13024   0.381E-03    0.734E-04
DAV:   7    -0.384062323491E+02    0.18112E-07   -0.28363E-08  8516   0.294E-03    0.261E-04
DAV:   8    -0.384062323444E+02    0.46844E-08   -0.11096E-08  5992   0.170E-03
   4 F= -.38406232E+02 E0= -.38402462E+02  d E =-.321106E-04
 trial-energy change:   -0.000032  1 .order   -0.000033   -0.000039   -0.000027
 step:   2.7429(harm=  2.7429)  dis= 0.00114  next Energy=   -38.406265 (dE=-0.644E-04)
 bond charge predicted
       N       E                     dE             d eps       ncg     rms          rms(c)
DAV:   1    -0.384063455437E+02   -0.11319E-03   -0.32077E-02 10068   0.108E+00    0.916E-02
DAV:   2    -0.384063148369E+02    0.30707E-04   -0.12756E-03 11896   0.424E-01    0.561E-02
DAV:   3    -0.384062737136E+02    0.41123E-04   -0.14980E-04 12200   0.148E-01    0.257E-02
DAV:   4    -0.384062620487E+02    0.11665E-04   -0.42611E-05 11248   0.690E-02    0.421E-03
DAV:   5    -0.384062629933E+02   -0.94462E-06   -0.12329E-05 11148   0.303E-02    0.288E-03
DAV:   6    -0.384062629382E+02    0.55133E-07   -0.67928E-07 13336   0.873E-03    0.168E-03
DAV:   7    -0.384062628964E+02    0.41820E-07   -0.16799E-07 12884   0.676E-03    0.601E-04
DAV:   8    -0.384062628890E+02    0.74274E-08   -0.49746E-08 10572   0.357E-03
   5 F= -.38406263E+02 E0= -.38402484E+02  d E =-.626551E-04
 curvature:  -1.49 expect dE=-0.102E-03 dE for cont linesearch -0.509E-09
 trial: gam= 1.48097 g(F)=  0.419E-04 g(S)=  0.269E-04 ort =-0.132E-06 (trialstep = 0.344E+00)
 search vector abs. value=  0.180E-03
 bond charge predicted
       N       E                     dE             d eps       ncg     rms          rms(c)
DAV:   1    -0.384063080563E+02   -0.45160E-04   -0.39772E-03 10304   0.424E-01    0.416E-02
DAV:   2    -0.384062928137E+02    0.15243E-04   -0.24719E-04 11120   0.192E-01    0.178E-02
DAV:   3    -0.384062888578E+02    0.39559E-05   -0.20635E-05 14292   0.507E-02    0.865E-03
DAV:   4    -0.384062872080E+02    0.16498E-05   -0.28712E-06 14880   0.246E-02    0.288E-03
DAV:   5    -0.384062870351E+02    0.17284E-06   -0.12106E-06 10768   0.872E-03    0.866E-04
DAV:   6    -0.384062870360E+02   -0.91086E-09   -0.13341E-07 13008   0.357E-03    0.511E-04
DAV:   7    -0.384062870419E+02   -0.58317E-08   -0.15139E-08  6264   0.244E-03
   6 F= -.38406287E+02 E0= -.38402510E+02  d E =-.241529E-04
 ZBRENT: can't locate minimum, use default step
 trial-energy change:   -0.000024  1 .order   -0.000021   -0.000024   -0.000018
 step:   1.3756(harm=  1.4408)  dis= 0.00117  next Energy=   -38.406312 (dE=-0.495E-04)
 bond charge predicted
       N       E                     dE             d eps       ncg     rms          rms(c)
DAV:   1    -0.384065059359E+02   -0.21890E-03   -0.35817E-02 10300   0.128E+00    0.125E-01
DAV:   2    -0.384063681223E+02    0.13781E-03   -0.22281E-03 11120   0.576E-01    0.533E-02
DAV:   3    -0.384063347199E+02    0.33402E-04   -0.18598E-04 14296   0.152E-01    0.259E-02
DAV:   4    -0.384063204978E+02    0.14222E-04   -0.25770E-05 14868   0.738E-02    0.864E-03
DAV:   5    -0.384063194569E+02    0.10409E-05   -0.10866E-05 10768   0.261E-02    0.259E-03
DAV:   6    -0.384063194767E+02   -0.19807E-07   -0.12103E-06 13384   0.108E-02    0.153E-03
DAV:   7    -0.384063194892E+02   -0.12456E-07   -0.17279E-07 13516   0.729E-03    0.805E-04
DAV:   8    -0.384063195140E+02   -0.24872E-07   -0.42435E-08 10884   0.320E-03    0.265E-04
DAV:   9    -0.384063195176E+02   -0.35466E-08   -0.15684E-08  6348   0.143E-03
   7 F= -.38406320E+02 E0= -.38402547E+02  d E =-.566286E-04
 curvature:  -1.88 expect dE=-0.361E-04 dE for cont linesearch -0.591E-06
 ZBRENT: extrapolating
 opt :   1.5490  next Energy=   -38.406320 (dE=-0.573E-04)
 bond charge predicted
       N       E                     dE             d eps       ncg     rms          rms(c)
DAV:   1    -0.384063255224E+02   -0.60084E-05   -0.10102E-03 10308   0.214E-01    0.210E-02
DAV:   2    -0.384063217200E+02    0.38024E-05   -0.62776E-05 11128   0.968E-02    0.894E-03
DAV:   3    -0.384063206281E+02    0.10920E-05   -0.52363E-06 14284   0.256E-02    0.436E-03
DAV:   4    -0.384063201836E+02    0.44444E-06   -0.72934E-07 14896   0.124E-02    0.144E-03
DAV:   5    -0.384063201193E+02    0.64299E-07   -0.30741E-07 10756   0.438E-03    0.435E-04
DAV:   6    -0.384063201193E+02    0.24556E-10   -0.29123E-08  7880   0.176E-03
   8 F= -.38406320E+02 E0= -.38402549E+02  d E =-.572304E-04
 curvature:  -2.08 expect dE=-0.482E-04 dE for cont linesearch -0.264E-08
 trial: gam= 0.33400 g(F)=  0.190E-04 g(S)=  0.421E-05 ort =-0.479E-06 (trialstep = 0.585E+00)
 search vector abs. value=  0.430E-04
 bond charge predicted
       N       E                     dE             d eps       ncg     rms          rms(c)
DAV:   1    -0.384063284599E+02   -0.83405E-05   -0.32024E-03 10000   0.306E-01    0.177E-02
DAV:   2    -0.384063296696E+02   -0.12098E-05   -0.74373E-05 11628   0.698E-02    0.107E-02
DAV:   3    -0.384063278290E+02    0.18406E-05   -0.57718E-06 13076   0.262E-02    0.502E-03
DAV:   4    -0.384063275538E+02    0.27526E-06   -0.18890E-06 12452   0.207E-02    0.180E-03
DAV:   5    -0.384063275386E+02    0.15217E-07   -0.48386E-07 10740   0.916E-03    0.683E-04
DAV:   6    -0.384063275423E+02   -0.37167E-08   -0.13083E-07 12196   0.336E-03    0.499E-04
DAV:   7    -0.384063275435E+02   -0.12419E-08   -0.16391E-08  6212   0.225E-03
   9 F= -.38406328E+02 E0= -.38402562E+02  d E =-.742420E-05
 trial-energy change:   -0.000007  1 .order   -0.000007   -0.000013   -0.000001
 step:   0.6114(harm=  0.6158)  dis= 0.00034  next Energy=   -38.406328 (dE=-0.744E-05)
 bond charge predicted
       N       E                     dE             d eps       ncg     rms          rms(c)
DAV:   1    -0.384063275727E+02   -0.30463E-07   -0.66429E-06 10184   0.140E-02    0.811E-04
DAV:   2    -0.384063275833E+02   -0.10565E-07   -0.16251E-07 11300   0.320E-03    0.495E-04
DAV:   3    -0.384063275810E+02    0.23279E-08   -0.11194E-08  6076   0.117E-03
  10 F= -.38406328E+02 E0= -.38402562E+02  d E =-.746166E-05
 curvature:  -0.56 expect dE=-0.274E-04 dE for cont linesearch -0.548E-08
 trial: gam= 2.07179 g(F)=  0.417E-04 g(S)=  0.705E-05 ort = 0.648E-06 (trialstep = 0.108E+00)
 search vector abs. value=  0.236E-03
 bond charge predicted
       N       E                     dE             d eps       ncg     rms          rms(c)
DAV:   1    -0.384063330967E+02   -0.55134E-05   -0.59349E-04 10144   0.134E-01    0.854E-03
DAV:   2    -0.384063329682E+02    0.12851E-06   -0.13607E-05 11256   0.386E-02    0.424E-03
DAV:   3    -0.384063327109E+02    0.25730E-06   -0.11833E-06 13324   0.137E-02    0.214E-03
DAV:   4    -0.384063326306E+02    0.80352E-07   -0.26688E-07 13444   0.907E-03    0.656E-04
DAV:   5    -0.384063326266E+02    0.40109E-08   -0.91831E-08 10688   0.387E-03
  11 F= -.38406333E+02 E0= -.38402568E+02  d E =-.504557E-05
 ZBRENT: can't locate minimum, use default step
 trial-energy change:   -0.000005  1 .order   -0.000005   -0.000005   -0.000005
 step:   0.4302(harm=  0.7274)  dis= 0.00061  next Energy=   -38.406346 (dE=-0.182E-04)
 bond charge predicted
       N       E                     dE             d eps       ncg     rms          rms(c)
DAV:   1    -0.384063473828E+02   -0.14752E-04   -0.53419E-03 10144   0.403E-01    0.256E-02
DAV:   2    -0.384063460457E+02    0.13370E-05   -0.12392E-04 11232   0.116E-01    0.127E-02
DAV:   3    -0.384063439365E+02    0.21092E-05   -0.10598E-05 13348   0.396E-02    0.641E-03
DAV:   4    -0.384063431937E+02    0.74279E-06   -0.23273E-06 13468   0.258E-02    0.194E-03
DAV:   5    -0.384063431832E+02    0.10507E-07   -0.80971E-07 10708   0.110E-02    0.771E-04
DAV:   6    -0.384063431930E+02   -0.98416E-08   -0.18258E-07 12972   0.434E-03    0.563E-04
DAV:   7    -0.384063431966E+02   -0.36007E-08   -0.17670E-08  7092   0.244E-03
  12 F= -.38406343E+02 E0= -.38402582E+02  d E =-.156157E-04
 curvature:  -1.32 expect dE=-0.127E-04 dE for cont linesearch -0.250E-05
 ZBRENT: increasing intervall
 opt :   1.0754  next Energy=   -38.406343 (dE=-0.154E-04)
 bond charge predicted
       N       E                     dE             d eps       ncg     rms          rms(c)
DAV:   1    -0.384063609551E+02   -0.17762E-04   -0.21372E-02 10140   0.806E-01    0.512E-02
DAV:   2    -0.384063550113E+02    0.59439E-05   -0.49425E-04 11232   0.231E-01    0.254E-02
DAV:   3    -0.384063467212E+02    0.82901E-05   -0.42674E-05 13372   0.797E-02    0.128E-02
DAV:   4    -0.384063437490E+02    0.29722E-05   -0.93497E-06 13500   0.519E-02    0.393E-03
DAV:   5    -0.384063437207E+02    0.28250E-07   -0.32271E-06 10704   0.219E-02    0.155E-03
DAV:   6    -0.384063437596E+02   -0.38888E-07   -0.74344E-07 13428   0.872E-03    0.113E-03
DAV:   7    -0.384063437665E+02   -0.69322E-08   -0.77869E-08 10824   0.489E-03
  13 F= -.38406344E+02 E0= -.38402590E+02  d E =-.161856E-04
 curvature:   0.14 expect dE= 0.461E-05 dE for cont linesearch  0.284E-06
 ZBRENT: bracketing found
 ZBRENT: interpolating
 opt :   0.7473  next Energy=   -38.406347 (dE=-0.190E-04)
 bond charge predicted
       N       E                     dE             d eps       ncg     rms          rms(c)
DAV:   1    -0.384063514253E+02   -0.76657E-05   -0.55208E-03 10132   0.409E-01    0.260E-02
DAV:   2    -0.384063497147E+02    0.17105E-05   -0.12766E-04 11216   0.118E-01    0.129E-02
DAV:   3    -0.384063476841E+02    0.20306E-05   -0.10802E-05 13332   0.407E-02    0.651E-03
DAV:   4    -0.384063468998E+02    0.78428E-06   -0.24138E-06 13428   0.269E-02    0.194E-03
DAV:   5    -0.384063469213E+02   -0.21477E-07   -0.83715E-07 10732   0.117E-02    0.775E-04
DAV:   6    -0.384063469320E+02   -0.10721E-07   -0.18870E-07 12876   0.427E-03    0.565E-04
DAV:   7    -0.384063469259E+02    0.61477E-08   -0.17631E-08  7016   0.244E-03
  14 F= -.38406347E+02 E0= -.38402590E+02  d E =-.193449E-04
 curvature:  -1.65 expect dE=-0.142E-04 dE for cont linesearch -0.142E-07
 trial: gam= 0.25077 g(F)=  0.693E-05 g(S)=  0.164E-05 ort = 0.142E-05 (trialstep = 0.235E+00)
 search vector abs. value=  0.241E-04
 bond charge predicted
       N       E                     dE             d eps       ncg     rms          rms(c)
DAV:   1    -0.384063492214E+02   -0.22894E-05   -0.25515E-04 10220   0.890E-02    0.653E-03
DAV:   2    -0.384063491165E+02    0.10492E-06   -0.59330E-06 12200   0.303E-02    0.370E-03
DAV:   3    -0.384063488884E+02    0.22806E-06   -0.72483E-07 13172   0.173E-02    0.172E-03
DAV:   4    -0.384063488563E+02    0.32148E-07   -0.21326E-07 11676   0.924E-03    0.388E-04
DAV:   5    -0.384063488607E+02   -0.44179E-08   -0.74351E-08 10232   0.217E-03
  15 F= -.38406349E+02 E0= -.38402593E+02  d E =-.193483E-05
 ZBRENT: can't locate minimum, use default step
 trial-energy change:   -0.000002  1 .order   -0.000002   -0.000002   -0.000002
 step:   0.9420(harm=  1.2483)  dis= 0.00035  next Energy=   -38.406352 (dE=-0.557E-05)
 bond charge predicted
       N       E                     dE             d eps       ncg     rms          rms(c)
DAV:   1    -0.384063562416E+02   -0.73853E-05   -0.22992E-03 10232   0.267E-01    0.196E-02
DAV:   2    -0.384063549761E+02    0.12655E-05   -0.53109E-05 12176   0.895E-02    0.111E-02
DAV:   3    -0.384063529159E+02    0.20601E-05   -0.66431E-06 13380   0.515E-02    0.514E-03
DAV:   4    -0.384063526191E+02    0.29689E-06   -0.18913E-06 11968   0.278E-02    0.122E-03
DAV:   5    -0.384063526597E+02   -0.40681E-07   -0.66371E-07 10880   0.643E-03    0.685E-04
DAV:   6    -0.384063526620E+02   -0.22287E-08   -0.48584E-08 10236   0.231E-03
  16 F= -.38406353E+02 E0= -.38402600E+02  d E =-.573609E-05
 curvature:  -1.53 expect dE=-0.149E-04 dE for cont linesearch -0.535E-06
 ZBRENT: increasing intervall
 opt :   2.3549  next Energy=   -38.406351 (dE=-0.370E-05)
 bond charge predicted
       N       E                     dE             d eps       ncg     rms          rms(c)
DAV:   1    -0.384063657090E+02   -0.13049E-04   -0.91960E-03 10236   0.534E-01    0.392E-02
DAV:   2    -0.384063604175E+02    0.52915E-05   -0.21289E-04 12184   0.180E-01    0.222E-02
DAV:   3    -0.384063521585E+02    0.82590E-05   -0.26853E-05 13372   0.104E-01    0.103E-02
DAV:   4    -0.384063509398E+02    0.12187E-05   -0.76202E-06 11996   0.556E-02    0.246E-03
DAV:   5    -0.384063511088E+02   -0.16906E-06   -0.26817E-06 10884   0.127E-02    0.136E-03
DAV:   6    -0.384063511119E+02   -0.30873E-08   -0.19164E-07 12284   0.441E-03    0.694E-04
DAV:   7    -0.384063511181E+02   -0.61409E-08   -0.30039E-08  9468   0.237E-03
  17 F= -.38406351E+02 E0= -.38402605E+02  d E =-.419220E-05
 curvature:   5.83 expect dE= 0.353E-03 dE for cont linesearch  0.761E-05
 ZBRENT: bracketing found
 ZBRENT: interpolating
 opt :   1.4236  next Energy=   -38.406353 (dE=-0.643E-05)
 bond charge predicted
       N       E                     dE             d eps       ncg     rms          rms(c)
DAV:   1    -0.384063601230E+02   -0.90111E-05   -0.39937E-03 10228   0.352E-01    0.258E-02
DAV:   2    -0.384063576059E+02    0.25171E-05   -0.92527E-05 12184   0.119E-01    0.147E-02
DAV:   3    -0.384063540005E+02    0.36054E-05   -0.11600E-05 13316   0.687E-02    0.680E-03
DAV:   4    -0.384063534448E+02    0.55571E-06   -0.33190E-06 11872   0.366E-02    0.161E-03
DAV:   5    -0.384063535234E+02   -0.78565E-07   -0.11682E-06 10884   0.840E-03    0.894E-04
DAV:   6    -0.384063535203E+02    0.31455E-08   -0.82598E-08 11700   0.286E-03
  18 F= -.38406354E+02 E0= -.38402603E+02  d E =-.659439E-05
 curvature:  -0.54 expect dE=-0.112E-04 dE for cont linesearch -0.174E-08
 trial: gam= 2.44907 g(F)=  0.162E-04 g(S)=  0.477E-05 ort = 0.280E-06 (trialstep = 0.683E-01)
 search vector abs. value=  0.167E-03
 bond charge predicted
       N       E                     dE             d eps       ncg     rms          rms(c)
DAV:   1    -0.384063552563E+02   -0.17329E-05   -0.14170E-04 10360   0.727E-02    0.649E-03
DAV:   2    -0.384063550283E+02    0.22797E-06   -0.56992E-06 11420   0.303E-02    0.325E-03
DAV:   3    -0.384063548451E+02    0.18319E-06   -0.57522E-07 13728   0.949E-03    0.157E-03
DAV:   4    -0.384063547854E+02    0.59669E-07   -0.11220E-07 12972   0.592E-03    0.399E-04
DAV:   5    -0.384063547817E+02    0.37026E-08   -0.42215E-08  9700   0.254E-03
  19 F= -.38406355E+02 E0= -.38402605E+02  d E =-.126147E-05
 trial-energy change:   -0.000001  1 .order   -0.000001   -0.000001   -0.000001
 step:   0.2632(harm=  0.2632)  dis= 0.00025  next Energy=   -38.406356 (dE=-0.285E-05)
 bond charge predicted
       N       E                     dE             d eps       ncg     rms          rms(c)
DAV:   1    -0.384063602906E+02   -0.55052E-05   -0.11537E-03 10352   0.208E-01    0.186E-02
DAV:   2    -0.384063583098E+02    0.19808E-05   -0.46510E-05 11416   0.871E-02    0.931E-03
DAV:   3    -0.384063570253E+02    0.12845E-05   -0.47355E-06 13732   0.282E-02    0.451E-03
DAV:   4    -0.384063566279E+02    0.39739E-06   -0.94175E-07 13776   0.178E-02    0.115E-03
DAV:   5    -0.384063566253E+02    0.26516E-08   -0.34957E-07 10692   0.740E-03    0.487E-04
DAV:   6    -0.384063566302E+02   -0.49145E-08   -0.61325E-08  9856   0.265E-03
  20 F= -.38406357E+02 E0= -.38402607E+02  d E =-.310993E-05
 curvature:  -1.02 expect dE=-0.488E-05 dE for cont linesearch -0.321E-07
 trial: gam= 0.10653 g(F)=  0.349E-05 g(S)=  0.132E-05 ort = 0.230E-05 (trialstep = 0.107E+00)
 search vector abs. value=  0.719E-05
 bond charge predicted
       N       E                     dE             d eps       ncg     rms          rms(c)
DAV:   1    -0.384063572589E+02   -0.63363E-06   -0.14016E-05 10532   0.247E-02    0.256E-03
DAV:   2    -0.384063572181E+02    0.40760E-07   -0.84634E-07 11424   0.116E-02    0.125E-03
DAV:   3    -0.384063571785E+02    0.39669E-07   -0.82020E-08 12536   0.352E-03    0.608E-04
DAV:   4    -0.384063571634E+02    0.15035E-07   -0.14974E-08  6352   0.191E-03    0.179E-04
DAV:   5    -0.384063571598E+02    0.35984E-08   -0.87265E-09  5628   0.108E-03
  21 F= -.38406357E+02 E0= -.38402608E+02  d E =-.529653E-06
 ZBRENT: can't locate minimum, use default step
 trial-energy change:   -0.000001  1 .order   -0.000001   -0.000001   -0.000001
 step:   0.4292(harm=  1.9013)  dis= 0.00008  next Energy=   -38.406361 (dE=-0.480E-05)
 bond charge predicted
       N       E                     dE             d eps       ncg     rms          rms(c)
DAV:   1    -0.384063592586E+02   -0.20952E-05   -0.12615E-04 10508   0.736E-02    0.767E-03
DAV:   2    -0.384063588147E+02    0.44387E-06   -0.78074E-06 11384   0.348E-02    0.372E-03
DAV:   3    -0.384063585864E+02    0.22832E-06   -0.77321E-07 14132   0.104E-02    0.182E-03
DAV:   4    -0.384063584998E+02    0.86678E-07   -0.15342E-07 13852   0.512E-03    0.524E-04
DAV:   5    -0.384063584876E+02    0.12196E-07   -0.55663E-08 10648   0.206E-03    0.188E-04
DAV:   6    -0.384063584869E+02    0.66484E-09   -0.48498E-09  5824   0.837E-04
  22 F= -.38406358E+02 E0= -.38402609E+02  d E =-.185671E-05
 curvature:  -0.44 expect dE=-0.107E-05 dE for cont linesearch -0.797E-06
 ZBRENT: increasing intervall
 opt :   1.0731  next Energy=   -38.406360 (dE=-0.343E-05)
 bond charge predicted
       N       E                     dE             d eps       ncg     rms          rms(c)
DAV:   1    -0.384063630091E+02   -0.45215E-05   -0.50473E-04 10496   0.147E-01    0.153E-02
DAV:   2    -0.384063611617E+02    0.18474E-05   -0.31112E-05 11368   0.696E-02    0.744E-03
DAV:   3    -0.384063603759E+02    0.78577E-06   -0.30762E-06 14068   0.208E-02    0.364E-03
DAV:   4    -0.384063600785E+02    0.29741E-06   -0.61682E-07 14032   0.103E-02    0.104E-03
DAV:   5    -0.384063600554E+02    0.23108E-07   -0.22023E-07 10700   0.419E-03    0.376E-04
DAV:   6    -0.384063600544E+02    0.10050E-08   -0.22421E-08  7740   0.179E-03
  23 F= -.38406360E+02 E0= -.38402611E+02  d E =-.342424E-05
 curvature:  -0.87 expect dE=-0.133E-05 dE for cont linesearch -0.208E-06
 ZBRENT: increasing intervall
 opt :   2.3608  next Energy=   -38.406359 (dE=-0.216E-05)
 bond charge predicted
       N       E                     dE             d eps       ncg     rms          rms(c)
DAV:   1    -0.384063697717E+02   -0.97163E-05   -0.20190E-03 10492   0.295E-01    0.306E-02
DAV:   2    -0.384063622563E+02    0.75153E-05   -0.12448E-04 11368   0.139E-01    0.149E-02
DAV:   3    -0.384063593801E+02    0.28763E-05   -0.12307E-05 14068   0.417E-02    0.729E-03
DAV:   4    -0.384063582951E+02    0.10850E-05   -0.24713E-06 14072   0.207E-02    0.209E-03
DAV:   5    -0.384063582507E+02    0.44400E-07   -0.88005E-07 10700   0.838E-03    0.752E-04
DAV:   6    -0.384063582510E+02   -0.31332E-09   -0.97345E-08 11240   0.358E-03
  24 F= -.38406358E+02 E0= -.38402609E+02  d E =-.162079E-05
 curvature:   5.29 expect dE= 0.516E-04 dE for cont linesearch  0.789E-05
 ZBRENT: bracketing found
 ZBRENT: interpolating
 opt :   1.4410  next Energy=   -38.406360 (dE=-0.367E-05)
 bond charge predicted
       N       E                     dE             d eps       ncg     rms          rms(c)
DAV:   1    -0.384063652358E+02   -0.69851E-05   -0.10293E-03 10480   0.210E-01    0.219E-02
DAV:   2    -0.384063612480E+02    0.39878E-05   -0.63734E-05 11376   0.992E-02    0.106E-02
DAV:   3    -0.384063601061E+02    0.11419E-05   -0.62580E-06 14000   0.297E-02    0.520E-03
DAV:   4    -0.384063596782E+02    0.42786E-06   -0.12704E-06 14032   0.145E-02    0.148E-03
DAV:   5    -0.384063597160E+02   -0.37758E-07   -0.45344E-07 10700   0.575E-03    0.536E-04
DAV:   6    -0.384063597192E+02   -0.32319E-08   -0.41495E-08  9752   0.222E-03
  25 F= -.38406360E+02 E0= -.38402610E+02  d E =-.308904E-05
 curvature:  -0.16 expect dE=-0.407E-06 dE for cont linesearch -0.142E-08
 trial: gam= 0.59204 g(F)=  0.192E-05 g(S)=  0.594E-06 ort = 0.251E-06 (trialstep = 0.374E+00)
 search vector abs. value=  0.534E-05
 bond charge predicted
       N       E                     dE             d eps       ncg     rms          rms(c)
DAV:   1    -0.384063609618E+02   -0.12458E-05   -0.12137E-04 10076   0.724E-02    0.761E-03
DAV:   2    -0.384063606678E+02    0.29397E-06   -0.75336E-06 11848   0.333E-02    0.395E-03
DAV:   3    -0.384063604041E+02    0.26372E-06   -0.71245E-07 13404   0.103E-02    0.194E-03
DAV:   4    -0.384063603119E+02    0.92149E-07   -0.14894E-07 12024   0.578E-03    0.397E-04
DAV:   5    -0.384063603095E+02    0.23856E-08   -0.61555E-08 10536   0.263E-03
  26 F= -.38406360E+02 E0= -.38402611E+02  d E =-.590329E-06
 trial-energy change:   -0.000001  1 .order   -0.000001   -0.000001   -0.000000
 step:   0.5125(harm=  0.5125)  dis= 0.00007  next Energy=   -38.406360 (dE=-0.684E-06)
 bond charge predicted
       N       E                     dE             d eps       ncg     rms          rms(c)
DAV:   1    -0.384063604655E+02   -0.15353E-06   -0.16657E-05 10084   0.269E-02    0.285E-03
DAV:   2    -0.384063604338E+02    0.31631E-07   -0.10481E-06 11864   0.125E-02    0.147E-03
DAV:   3    -0.384063603845E+02    0.49300E-07   -0.98935E-08 12172   0.395E-03    0.729E-04
DAV:   4    -0.384063603666E+02    0.17947E-07   -0.18021E-08  7016   0.228E-03    0.156E-04
DAV:   5    -0.384063603658E+02    0.79854E-09   -0.10678E-08  5520   0.122E-03
  27 F= -.38406360E+02 E0= -.38402611E+02  d E =-.646572E-06
 curvature:  -0.51 expect dE=-0.191E-05 dE for cont linesearch -0.191E-08
 trial: gam= 1.42970 g(F)=  0.280E-05 g(S)=  0.934E-06 ort = 0.141E-06 (trialstep = 0.143E+00)
 search vector abs. value=  0.150E-04
 bond charge predicted
       N       E                     dE             d eps       ncg     rms          rms(c)
DAV:   1    -0.384063610470E+02   -0.68043E-06   -0.49928E-05  9856   0.405E-02    0.401E-03
DAV:   2    -0.384063609855E+02    0.61567E-07   -0.16754E-06 12688   0.147E-02    0.241E-03
DAV:   3    -0.384063608862E+02    0.99231E-07   -0.22554E-07 12032   0.103E-02    0.925E-04
DAV:   4    -0.384063608808E+02    0.53783E-08   -0.81294E-08 10716   0.553E-03
  28 F= -.38406361E+02 E0= -.38402612E+02  d E =-.515054E-06
 ZBRENT: can't locate minimum, use default step
 trial-energy change:   -0.000001  1 .order   -0.000000   -0.000001   -0.000000
 step:   0.5701(harm=  0.6545)  dis= 0.00013  next Energy=   -38.406362 (dE=-0.129E-05)
 bond charge predicted
       N       E                     dE             d eps       ncg     rms          rms(c)
DAV:   1    -0.384063632555E+02   -0.23693E-05   -0.44928E-04  9856   0.122E-01    0.121E-02
DAV:   2    -0.384063626294E+02    0.62611E-06   -0.15196E-05 12632   0.457E-02    0.727E-03
DAV:   3    -0.384063617217E+02    0.90770E-06   -0.21317E-06 11920   0.323E-02    0.288E-03
DAV:   4    -0.384063616515E+02    0.70185E-07   -0.75949E-07 10940   0.169E-02    0.584E-04
DAV:   5    -0.384063616683E+02   -0.16807E-07   -0.23669E-07 11476   0.357E-03    0.421E-04
DAV:   6    -0.384063616671E+02    0.12092E-08   -0.10808E-08  6048   0.886E-04
  29 F= -.38406362E+02 E0= -.38402615E+02  d E =-.130134E-05
 curvature:  -1.22 expect dE=-0.774E-06 dE for cont linesearch -0.573E-08
 trial: gam= 0.17554 g(F)=  0.534E-06 g(S)=  0.101E-06 ort = 0.266E-06 (trialstep = 0.228E+00)
 search vector abs. value=  0.119E-05
 bond charge predicted
       N       E                     dE             d eps       ncg     rms          rms(c)
DAV:   1    -0.384063618421E+02   -0.17373E-06   -0.10346E-05 10060   0.187E-02    0.173E-03
DAV:   2    -0.384063618239E+02    0.18125E-07   -0.31162E-07 11632   0.615E-03    0.983E-04
DAV:   3    -0.384063618230E+02    0.98589E-09   -0.34750E-08 10288   0.227E-03
  30 F= -.38406362E+02 E0= -.38402615E+02  d E =-.155828E-06
 ZBRENT: can't locate minimum, use default step
 trial-energy change:   -0.000000  1 .order   -0.000000   -0.000000   -0.000000
 step:   0.9121(harm=  0.9121)  dis= 0.00009  next Energy=   -38.406362 (dE=-0.674E-06)
 bond charge predicted
       N       E                     dE             d eps       ncg     rms          rms(c)
DAV:   1    -0.384063624337E+02   -0.60978E-06   -0.92669E-05 10012   0.559E-02    0.516E-03
DAV:   2    -0.384063622736E+02    0.16010E-06   -0.27437E-06 11784   0.191E-02    0.293E-03
DAV:   3    -0.384063621825E+02    0.91113E-07   -0.33913E-07 13364   0.787E-03    0.115E-03
DAV:   4    -0.384063621721E+02    0.10388E-07   -0.86952E-08 11008   0.477E-03    0.247E-04
DAV:   5    -0.384063621760E+02   -0.39076E-08   -0.25100E-08  7600   0.208E-03
  31 F= -.38406362E+02 E0= -.38402617E+02  d E =-.508902E-06
 curvature:  -1.22 expect dE=-0.572E-06 dE for cont linesearch -0.106E-06
 ZBRENT: increasing intervall
 opt :   2.2803  next Energy=   -38.406362 (dE=-0.419E-06)
 bond charge predicted
       N       E                     dE             d eps       ncg     rms          rms(c)
DAV:   1    -0.384063634356E+02   -0.12635E-05   -0.37153E-04 10008   0.112E-01    0.103E-02
DAV:   2    -0.384063628225E+02    0.61314E-06   -0.11443E-05 11704   0.395E-02    0.585E-03
DAV:   3    -0.384063623852E+02    0.43733E-06   -0.13595E-06 13384   0.161E-02    0.237E-03
DAV:   4    -0.384063623235E+02    0.61651E-07   -0.35611E-07 12468   0.971E-03    0.502E-04
DAV:   5    -0.384063623351E+02   -0.11563E-07   -0.10474E-07 10712   0.416E-03    0.307E-04
DAV:   6    -0.384063623364E+02   -0.13038E-08   -0.15447E-08  6920   0.184E-03
  32 F= -.38406362E+02 E0= -.38402620E+02  d E =-.669267E-06
 curvature:   1.03 expect dE= 0.247E-05 dE for cont linesearch  0.371E-07
 trial: gam= 0.00000 g(F)=  0.233E-05 g(S)=  0.642E-07 ort =-0.207E-06 (trialstep = 0.317E+00)
 search vector abs. value=  0.240E-05
 bond charge predicted
       N       E                     dE             d eps       ncg     rms          rms(c)
DAV:   1    -0.384063621782E+02    0.15693E-06   -0.54053E-05  9868   0.399E-02    0.229E-03
DAV:   2    -0.384063624756E+02   -0.29747E-06   -0.34424E-06 11204   0.126E-02    0.180E-03
DAV:   3    -0.384063624638E+02    0.11845E-07   -0.15104E-07 11980   0.308E-03    0.134E-03
DAV:   4    -0.384063624578E+02    0.60309E-08   -0.53320E-08 10596   0.193E-03
  33 F= -.38406362E+02 E0= -.38402621E+02  d E =-.121358E-06
 trial-energy change:   -0.000000  1 .order   -0.000000   -0.000001    0.000001
 step:   0.1810(harm=  0.1810)  dis= 0.00003  next Energy=   -38.406363 (dE=-0.217E-06)
 bond charge predicted
       N       E                     dE             d eps       ncg     rms          rms(c)
DAV:   1    -0.384063625462E+02   -0.82421E-07   -0.10090E-05  9868   0.170E-02    0.921E-04
DAV:   2    -0.384063625886E+02   -0.42432E-07   -0.63102E-07 11088   0.519E-03    0.695E-04
DAV:   3    -0.384063625787E+02    0.99149E-08   -0.24149E-08  9652   0.125E-03
  34 F= -.38406363E+02 E0= -.38402621E+02  d E =-.242326E-06
 curvature:  -0.09 expect dE=-0.329E-07 dE for cont linesearch -0.691E-09
 trial: gam= 0.20808 g(F)=  0.217E-06 g(S)=  0.146E-06 ort =-0.135E-06 (trialstep = 0.290E+00)
 search vector abs. value=  0.411E-06
 reached required accuracy - stopping structural energy minimisation
 writing wavefunctions
Wed Jan  5 23:49:20 CST 2022
