Thu Jan  6 00:24:55 CST 2022
 running on   48 total cores
 distrk:  each k-point on   48 cores,    1 groups
 distr:  one band on   24 cores,    2 groups
 using from now: INCAR     
 vasp.5.3.5 31Mar14 (build Jan 11 2016 19:50:55) complex                        
  
 POSCAR found type information on POSCAR  Zn Ga N  O 
 POSCAR found :  4 types and       8 ions
 scaLAPACK will be used

 ----------------------------------------------------------------------------- 
|                                                                             |
|           W    W    AA    RRRRR   N    N  II  N    N   GGGG   !!!           |
|           W    W   A  A   R    R  NN   N  II  NN   N  G    G  !!!           |
|           W    W  A    A  R    R  N N  N  II  N N  N  G       !!!           |
|           W WW W  AAAAAA  RRRRR   N  N N  II  N  N N  G  GGG   !            |
|           WW  WW  A    A  R   R   N   NN  II  N   NN  G    G                |
|           W    W  A    A  R    R  N    N  II  N    N   GGGG   !!!           |
|                                                                             |
|      For optimal performance we recommend to set                            |
|        NCORE= 4 - approx SQRT( number of cores)                             |
|      NCORE specifies how many cores store one orbital (NPAR=cpu/NCORE).     |
|      This setting can  greatly improve the performance of VASP for DFT.     |
|      The default, NPAR=number of cores might be grossly inefficient         |
|      on modern multi-core architectures or massively parallel machines.     |
|      Do your own testing !!!!                                               |
|      Unfortunately you need to use the default for GW and RPA calculations. |
|      (for HF NCORE is supported but not extensively tested yet)             |
|                                                                             |
 ----------------------------------------------------------------------------- 

 LDA part: xc-table for Pade appr. of Perdew
 POSCAR, INCAR and KPOINTS ok, starting setup
 WARNING: small aliasing (wrap around) errors must be expected
 FFT: planning ...
 WAVECAR not read
 entering main loop
       N       E                     dE             d eps       ncg     rms          rms(c)
DAV:   1     0.912815357184E+03    0.91282E+03   -0.42155E+04 10188   0.342E+03
DAV:   2     0.140729091008E+03   -0.77209E+03   -0.74085E+03  9928   0.802E+02
DAV:   3    -0.341082764265E+02   -0.17484E+03   -0.17008E+03 11028   0.272E+02
DAV:   4    -0.488731214827E+02   -0.14765E+02   -0.14592E+02 12224   0.809E+01
DAV:   5    -0.493388317970E+02   -0.46571E+00   -0.46379E+00 12560   0.142E+01    0.173E+01
DAV:   6    -0.411808071409E+02    0.81580E+01   -0.23061E+01 18672   0.810E+01    0.823E+00
DAV:   7    -0.419128735854E+02   -0.73207E+00   -0.91454E+00 10628   0.211E+01    0.557E+00
DAV:   8    -0.418216512992E+02    0.91222E-01   -0.12086E+00 15528   0.969E+00    0.249E+00
DAV:   9    -0.417868140779E+02    0.34837E-01   -0.18919E-01 14080   0.484E+00    0.102E+00
DAV:  10    -0.417767763647E+02    0.10038E-01   -0.67310E-02 13720   0.180E+00    0.378E-01
DAV:  11    -0.417771788329E+02   -0.40247E-03   -0.10979E-02 13780   0.907E-01    0.114E-01
DAV:  12    -0.417773856787E+02   -0.20685E-03   -0.20132E-03 11872   0.549E-01    0.434E-02
DAV:  13    -0.417774241623E+02   -0.38484E-04   -0.32133E-04 11760   0.196E-01    0.469E-02
DAV:  14    -0.417774233689E+02    0.79337E-06   -0.72604E-05 13704   0.139E-01    0.216E-02
DAV:  15    -0.417774249550E+02   -0.15861E-05   -0.29704E-05 12964   0.741E-02    0.123E-02
DAV:  16    -0.417774257693E+02   -0.81424E-06   -0.51855E-06 13284   0.325E-02    0.433E-03
DAV:  17    -0.417774258357E+02   -0.66418E-07   -0.90621E-07 13340   0.119E-02    0.191E-03
DAV:  18    -0.417774257192E+02    0.11645E-06   -0.32385E-07 12544   0.626E-03    0.120E-03
DAV:  19    -0.417774257540E+02   -0.34826E-07   -0.45738E-08 10400   0.393E-03    0.380E-04
DAV:  20    -0.417774257486E+02    0.54283E-08   -0.10887E-08  6504   0.165E-03
   1 F= -.41777426E+02 E0= -.41777394E+02  d E =-.417774E+02
 curvature:   0.00 expect dE= 0.000E+00 dE for cont linesearch  0.000E+00
 trial: gam= 0.00000 g(F)=  0.199E-04 g(S)=  0.206E-05 ort = 0.000E+00 (trialstep = 0.100E+01)
 search vector abs. value=  0.219E-04
 bond charge predicted
       N       E                     dE             d eps       ncg     rms          rms(c)
DAV:   1    -0.417774352029E+02   -0.94489E-05   -0.42230E-03 10864   0.420E-01    0.309E-02
DAV:   2    -0.417774372814E+02   -0.20785E-05   -0.22840E-04 11220   0.177E-01    0.139E-02
DAV:   3    -0.417774363297E+02    0.95171E-06   -0.17750E-05 12436   0.510E-02    0.695E-03
DAV:   4    -0.417774355652E+02    0.76445E-06   -0.29446E-06 13696   0.247E-02    0.210E-03
DAV:   5    -0.417774356584E+02   -0.93110E-07   -0.13356E-06 10692   0.947E-03    0.735E-04
DAV:   6    -0.417774356465E+02    0.11808E-07   -0.86419E-08 12288   0.289E-03    0.542E-04
DAV:   7    -0.417774356228E+02    0.23788E-07   -0.11308E-08  6096   0.242E-03    0.276E-04
DAV:   8    -0.417774356012E+02    0.21597E-07   -0.61880E-09  5804   0.155E-03    0.834E-05
DAV:   9    -0.417774356018E+02   -0.65438E-09   -0.26833E-09  5660   0.504E-04
   2 F= -.41777436E+02 E0= -.41777403E+02  d E =-.985321E-05
 trial-energy change:   -0.000010  1 .order   -0.000010   -0.000022    0.000002
 step:   0.9260(harm=  0.9312)  dis= 0.00045  next Energy=   -41.777436 (dE=-0.991E-05)
 bond charge predicted
       N       E                     dE             d eps       ncg     rms          rms(c)
DAV:   1    -0.417774356845E+02   -0.83335E-07   -0.23139E-05 10856   0.312E-02    0.228E-03
DAV:   2    -0.417774357059E+02   -0.21358E-07   -0.12555E-06 11232   0.131E-02    0.104E-03
DAV:   3    -0.417774356791E+02    0.26718E-07   -0.96672E-08 12124   0.377E-03    0.519E-04
DAV:   4    -0.417774356651E+02    0.14087E-07   -0.12303E-08  6040   0.186E-03    0.164E-04
DAV:   5    -0.417774356606E+02    0.44106E-08   -0.99414E-09  5604   0.925E-04
   3 F= -.41777436E+02 E0= -.41777403E+02  d E =-.991203E-05
 curvature:  -0.46 expect dE=-0.878E-06 dE for cont linesearch -0.254E-09
 trial: gam= 0.08154 g(F)=  0.127E-05 g(S)=  0.623E-06 ort = 0.110E-06 (trialstep = 0.985E+00)
 search vector abs. value=  0.206E-05
 bond charge predicted
       N       E                     dE             d eps       ncg     rms          rms(c)
DAV:   1    -0.417774383593E+02   -0.26943E-05   -0.38386E-04 10912   0.146E-01    0.135E-02
DAV:   2    -0.417774374330E+02    0.92629E-06   -0.29433E-05 11676   0.731E-02    0.687E-03
DAV:   3    -0.417774368416E+02    0.59137E-06   -0.22172E-06 13992   0.208E-02    0.323E-03
DAV:   4    -0.417774365457E+02    0.29591E-06   -0.51046E-07 13676   0.993E-03    0.817E-04
DAV:   5    -0.417774365237E+02    0.22078E-07   -0.17912E-07 10764   0.383E-03    0.329E-04
DAV:   6    -0.417774365296E+02   -0.59504E-08   -0.10100E-08  5924   0.207E-03
   4 F= -.41777437E+02 E0= -.41777404E+02  d E =-.868969E-06
 trial-energy change:   -0.000001  1 .order   -0.000001   -0.000002   -0.000000
 step:   1.0464(harm=  1.0236)  dis= 0.00012  next Energy=   -41.777437 (dE=-0.871E-06)
 bond charge predicted
       N       E                     dE             d eps       ncg     rms          rms(c)
DAV:   1    -0.417774365566E+02   -0.32983E-07   -0.15063E-06 10768   0.922E-03    0.848E-04
DAV:   2    -0.417774365564E+02    0.21873E-09   -0.11190E-07 11004   0.472E-03    0.439E-04
DAV:   3    -0.417774365452E+02    0.11235E-07   -0.72257E-09  5492   0.156E-03    0.201E-04
DAV:   4    -0.417774365376E+02    0.76070E-08   -0.33927E-09  5172   0.919E-04
   5 F= -.41777437E+02 E0= -.41777404E+02  d E =-.876941E-06
 curvature:  -0.36 expect dE=-0.346E-06 dE for cont linesearch -0.377E-09
 trial: gam= 0.53235 g(F)=  0.556E-06 g(S)=  0.406E-06 ort =-0.465E-07 (trialstep = 0.997E+00)
 search vector abs. value=  0.150E-05
 bond charge predicted
       N       E                     dE             d eps       ncg     rms          rms(c)
DAV:   1    -0.417774378406E+02   -0.12954E-05   -0.27399E-04  9988   0.111E-01    0.979E-03
DAV:   2    -0.417774373323E+02    0.50831E-06   -0.13875E-05 11560   0.497E-02    0.484E-03
DAV:   3    -0.417774371430E+02    0.18935E-06   -0.12219E-06 12728   0.140E-02    0.234E-03
DAV:   4    -0.417774370819E+02    0.61042E-07   -0.27238E-07 13788   0.792E-03    0.441E-04
DAV:   5    -0.417774370932E+02   -0.11221E-07   -0.88869E-08 10576   0.298E-03    0.224E-04
DAV:   6    -0.417774370893E+02    0.38722E-08   -0.59456E-09  5812   0.149E-03
   6 F= -.41777437E+02 E0= -.41777404E+02  d E =-.551698E-06
 trial-energy change:   -0.000001  1 .order   -0.000001   -0.000001   -0.000000
 step:   1.3073(harm=  1.3073)  dis= 0.00016  next Energy=   -41.777437 (dE=-0.612E-06)
 bond charge predicted
       N       E                     dE             d eps       ncg     rms          rms(c)
DAV:   1    -0.417774371795E+02   -0.86372E-07   -0.26477E-05 10036   0.344E-02    0.305E-03
DAV:   2    -0.417774371178E+02    0.61721E-07   -0.13288E-06 11552   0.155E-02    0.151E-03
DAV:   3    -0.417774371167E+02    0.11137E-08   -0.11717E-07 12084   0.451E-03    0.726E-04
DAV:   4    -0.417774371184E+02   -0.17540E-08   -0.22467E-08  6992   0.270E-03
   7 F= -.41777437E+02 E0= -.41777404E+02  d E =-.580861E-06
 curvature:  -1.04 expect dE=-0.528E-06 dE for cont linesearch -0.270E-09
 trial: gam= 0.58612 g(F)=  0.235E-06 g(S)=  0.270E-06 ort =-0.197E-07 (trialstep = 0.106E+01)
 search vector abs. value=  0.997E-06
 bond charge predicted
       N       E                     dE             d eps       ncg     rms          rms(c)
DAV:   1    -0.417774385987E+02   -0.14820E-05   -0.20143E-04 11108   0.111E-01    0.107E-02
DAV:   2    -0.417774377448E+02    0.85387E-06   -0.15669E-05 12848   0.557E-02    0.485E-03
DAV:   3    -0.417774373801E+02    0.36470E-06   -0.11342E-06 13320   0.145E-02    0.231E-03
DAV:   4    -0.417774372054E+02    0.17475E-06   -0.23441E-07 14768   0.722E-03    0.548E-04
DAV:   5    -0.417774371919E+02    0.13454E-07   -0.86670E-08 10556   0.249E-03    0.242E-04
DAV:   6    -0.417774371954E+02   -0.34279E-08   -0.44643E-09  5840   0.922E-04
   8 F= -.41777437E+02 E0= -.41777405E+02  d E =-.769073E-07
 trial-energy change:   -0.000000  1 .order   -0.000000   -0.000001    0.000000
 step:   0.6025(harm=  0.6930)  dis= 0.00006  next Energy=   -41.777437 (dE=-0.140E-06)
 bond charge predicted
       N       E                     dE             d eps       ncg     rms          rms(c)
DAV:   1    -0.417774374164E+02   -0.22453E-06   -0.37451E-05 11076   0.481E-02    0.460E-03
DAV:   2    -0.417774372359E+02    0.18052E-06   -0.29439E-06 12816   0.241E-02    0.209E-03
DAV:   3    -0.417774372367E+02   -0.78808E-09   -0.21222E-07 12704   0.629E-03    0.997E-04
DAV:   4    -0.417774372447E+02   -0.79422E-08   -0.40156E-08 10016   0.309E-03
   9 F= -.41777437E+02 E0= -.41777405E+02  d E =-.126212E-06
 curvature:  -0.66 expect dE=-0.248E-06 dE for cont linesearch -0.301E-07
 trial: gam= 0.08786 g(F)=  0.113E-06 g(S)=  0.265E-06 ort = 0.214E-06 (trialstep = 0.968E+00)
 search vector abs. value=  0.423E-06
 bond charge predicted
       N       E                     dE             d eps       ncg     rms          rms(c)
DAV:   1    -0.417774395473E+02   -0.23105E-05   -0.66725E-05 12508   0.105E-01    0.114E-02
DAV:   2    -0.417774376610E+02    0.18863E-05   -0.11402E-05 12680   0.564E-02    0.453E-03
DAV:   3    -0.417774372689E+02    0.39205E-06   -0.98658E-07 15084   0.132E-02    0.204E-03
DAV:   4    -0.417774371047E+02    0.16418E-06   -0.14211E-07 14840   0.513E-03    0.505E-04
DAV:   5    -0.417774370921E+02    0.12591E-07   -0.72573E-08 10496   0.224E-03    0.330E-04
DAV:   6    -0.417774370974E+02   -0.52892E-08   -0.22549E-09  5620   0.704E-04
  10 F= -.41777437E+02 E0= -.41777404E+02  d E =0.147227E-06
 trial-energy change:    0.000000  1 .order    0.000000   -0.000000    0.000000
 step:   0.2864(harm=  0.4368)  dis= 0.00001  next Energy=   -41.777437 (dE=-0.540E-07)
 bond charge predicted
       N       E                     dE             d eps       ncg     rms          rms(c)
DAV:   1    -0.417774382763E+02   -0.11841E-05   -0.33332E-05 12504   0.743E-02    0.802E-03
DAV:   2    -0.417774373443E+02    0.93199E-06   -0.56489E-06 12672   0.396E-02    0.321E-03
DAV:   3    -0.417774372684E+02    0.75894E-07   -0.48888E-07 15168   0.932E-03    0.144E-03
DAV:   4    -0.417774372614E+02    0.70199E-08   -0.65975E-08 12924   0.363E-03
  11 F= -.41777437E+02 E0= -.41777405E+02  d E =-.167297E-07
 curvature:  -0.21 expect dE=-0.666E-07 dE for cont linesearch -0.524E-07
 trial: gam= 0.03574 g(F)=  0.656E-07 g(S)=  0.245E-06 ort = 0.322E-06 (trialstep = 0.832E+00)
 search vector abs. value=  0.334E-06
 reached required accuracy - stopping structural energy minimisation
 writing wavefunctions
Thu Jan  6 00:27:22 CST 2022
