Thu Jan  6 02:21:38 CST 2022
 running on   48 total cores
 distrk:  each k-point on   48 cores,    1 groups
 distr:  one band on   24 cores,    2 groups
 using from now: INCAR     
 vasp.5.3.5 31Mar14 (build Jan 11 2016 19:50:55) complex                        
  
 POSCAR found type information on POSCAR  Zn Ga N  O 
 POSCAR found :  4 types and       8 ions
 scaLAPACK will be used

 ----------------------------------------------------------------------------- 
|                                                                             |
|           W    W    AA    RRRRR   N    N  II  N    N   GGGG   !!!           |
|           W    W   A  A   R    R  NN   N  II  NN   N  G    G  !!!           |
|           W    W  A    A  R    R  N N  N  II  N N  N  G       !!!           |
|           W WW W  AAAAAA  RRRRR   N  N N  II  N  N N  G  GGG   !            |
|           WW  WW  A    A  R   R   N   NN  II  N   NN  G    G                |
|           W    W  A    A  R    R  N    N  II  N    N   GGGG   !!!           |
|                                                                             |
|      For optimal performance we recommend to set                            |
|        NCORE= 4 - approx SQRT( number of cores)                             |
|      NCORE specifies how many cores store one orbital (NPAR=cpu/NCORE).     |
|      This setting can  greatly improve the performance of VASP for DFT.     |
|      The default, NPAR=number of cores might be grossly inefficient         |
|      on modern multi-core architectures or massively parallel machines.     |
|      Do your own testing !!!!                                               |
|      Unfortunately you need to use the default for GW and RPA calculations. |
|      (for HF NCORE is supported but not extensively tested yet)             |
|                                                                             |
 ----------------------------------------------------------------------------- 

 LDA part: xc-table for Pade appr. of Perdew
 POSCAR, INCAR and KPOINTS ok, starting setup
 WARNING: small aliasing (wrap around) errors must be expected
 FFT: planning ...
 WAVECAR not read
 entering main loop
       N       E                     dE             d eps       ncg     rms          rms(c)
DAV:   1     0.888055635060E+03    0.88806E+03   -0.42255E+04 10176   0.315E+03
DAV:   2     0.142657589880E+03   -0.74540E+03   -0.71672E+03 10032   0.758E+02
DAV:   3    -0.293870863023E+02   -0.17204E+03   -0.16714E+03 11488   0.260E+02
DAV:   4    -0.445707205909E+02   -0.15184E+02   -0.15040E+02 12040   0.787E+01
DAV:   5    -0.450695913065E+02   -0.49887E+00   -0.49685E+00 12600   0.138E+01    0.167E+01
DAV:   6    -0.375214371835E+02    0.75482E+01   -0.25841E+01 19220   0.845E+01    0.798E+00
DAV:   7    -0.381215505977E+02   -0.60011E+00   -0.79288E+00 10684   0.195E+01    0.523E+00
DAV:   8    -0.381076901353E+02    0.13860E-01   -0.19376E+00 16216   0.109E+01    0.247E+00
DAV:   9    -0.380083038707E+02    0.99386E-01   -0.41751E-01 15272   0.727E+00    0.747E-01
DAV:  10    -0.380096348928E+02   -0.13310E-02   -0.96339E-02 11072   0.195E+00    0.283E-01
DAV:  11    -0.380110006071E+02   -0.13657E-02   -0.99136E-03 15476   0.931E-01    0.147E-01
DAV:  12    -0.380118045719E+02   -0.80396E-03   -0.21091E-03 12576   0.748E-01    0.434E-02
DAV:  13    -0.380118888055E+02   -0.84234E-04   -0.37449E-04 12188   0.279E-01    0.244E-02
DAV:  14    -0.380119710634E+02   -0.82258E-04   -0.14370E-04 10640   0.135E-01    0.151E-02
DAV:  15    -0.380119832739E+02   -0.12211E-04   -0.59562E-05 13160   0.129E-01    0.819E-03
DAV:  16    -0.380119875080E+02   -0.42341E-05   -0.14387E-05 10596   0.281E-02    0.408E-03
DAV:  17    -0.380119879638E+02   -0.45582E-06   -0.29392E-06 13404   0.243E-02    0.198E-03
DAV:  18    -0.380119879623E+02    0.14616E-08   -0.55703E-07 10684   0.587E-03    0.971E-04
DAV:  19    -0.380119879550E+02    0.73705E-08   -0.16004E-07 14576   0.276E-03    0.387E-04
DAV:  20    -0.380119879649E+02   -0.99299E-08   -0.17824E-08  8608   0.157E-03
   1 F= -.38011988E+02 E0= -.38011947E+02  d E =-.380120E+02
 curvature:   0.00 expect dE= 0.000E+00 dE for cont linesearch  0.000E+00
 trial: gam= 0.00000 g(F)=  0.356E-04 g(S)=  0.172E-01 ort = 0.000E+00 (trialstep = 0.100E+01)
 search vector abs. value=  0.172E-01
 bond charge predicted
       N       E                     dE             d eps       ncg     rms          rms(c)
DAV:   1    -0.381232298501E+02   -0.11124E+00   -0.21484E+00 13312   0.186E+01    0.234E+00
DAV:   2    -0.380417466067E+02    0.81483E-01   -0.42110E-01 12580   0.100E+01    0.105E+00
DAV:   3    -0.380250013223E+02    0.16745E-01   -0.32901E-02 13640   0.229E+00    0.494E-01
DAV:   4    -0.380195432231E+02    0.54581E-02   -0.76140E-03 14320   0.119E+00    0.871E-02
DAV:   5    -0.380196768266E+02   -0.13360E-03   -0.35813E-03 10736   0.601E-01    0.418E-02
DAV:   6    -0.380196855675E+02   -0.87408E-05   -0.28314E-04 12288   0.191E-01    0.262E-02
DAV:   7    -0.380196839318E+02    0.16357E-05   -0.31822E-05 12024   0.133E-01    0.155E-02
DAV:   8    -0.380196858692E+02   -0.19375E-05   -0.19399E-05 14456   0.388E-02    0.526E-03
DAV:   9    -0.380196861360E+02   -0.26671E-06   -0.55069E-06 12120   0.466E-02    0.296E-03
DAV:  10    -0.380196864117E+02   -0.27576E-06   -0.88177E-07 10748   0.117E-02    0.998E-04
DAV:  11    -0.380196865153E+02   -0.10363E-06   -0.28237E-07 11844   0.408E-03    0.630E-04
DAV:  12    -0.380196865457E+02   -0.30308E-07   -0.46185E-08 10476   0.243E-03    0.181E-04
DAV:  13    -0.380196865508E+02   -0.51177E-08   -0.60091E-09  7164   0.123E-03
   2 F= -.38019687E+02 E0= -.38019647E+02  d E =-.769859E-02
 trial-energy change:   -0.007699  1 .order   -0.007826   -0.017195    0.001543
 step:   0.9145(harm=  0.9177)  dis= 0.00073  next Energy=   -38.019753 (dE=-0.776E-02)
 bond charge predicted
       N       E                     dE             d eps       ncg     rms          rms(c)
DAV:   1    -0.380205048984E+02   -0.81835E-03   -0.15522E-02 13368   0.156E+00    0.200E-01
DAV:   2    -0.380199092140E+02    0.59568E-03   -0.30926E-03 12368   0.876E-01    0.894E-02
DAV:   3    -0.380197898625E+02    0.11935E-03   -0.23992E-04 13304   0.202E-01    0.417E-02
DAV:   4    -0.380197519625E+02    0.37900E-04   -0.56455E-05 14156   0.109E-01    0.792E-03
DAV:   5    -0.380197531206E+02   -0.11581E-05   -0.26163E-05 10740   0.529E-02    0.343E-03
DAV:   6    -0.380197531866E+02   -0.65957E-07   -0.24205E-06 12108   0.181E-02    0.230E-03
DAV:   7    -0.380197531337E+02    0.52886E-07   -0.26026E-07 12084   0.118E-02    0.132E-03
DAV:   8    -0.380197530812E+02    0.52506E-07   -0.14757E-07 14072   0.375E-03    0.442E-04
DAV:   9    -0.380197530716E+02    0.96534E-08   -0.45743E-08  9828   0.404E-03
   3 F= -.38019753E+02 E0= -.38019714E+02  d E =-.776511E-02
 curvature:  -0.46 expect dE=-0.361E-02 dE for cont linesearch -0.841E-11
 trial: gam= 0.45845 g(F)=  0.545E-02 g(S)=  0.244E-02 ort = 0.562E-06 (trialstep = 0.983E+00)
 search vector abs. value=  0.115E-01
 bond charge predicted
       N       E                     dE             d eps       ncg     rms          rms(c)
DAV:   1    -0.380355666440E+02   -0.15814E-01   -0.16325E+00  9864   0.745E+00    0.869E-01
DAV:   2    -0.380301680549E+02    0.53986E-02   -0.64328E-02 12016   0.285E+00    0.517E-01
DAV:   3    -0.380252682998E+02    0.48998E-02   -0.96189E-03 13120   0.166E+00    0.159E-01
DAV:   4    -0.380251369671E+02    0.13133E-03   -0.33752E-03 10880   0.943E-01    0.380E-02
DAV:   5    -0.380251953328E+02   -0.58366E-04   -0.78070E-04 11308   0.304E-01    0.307E-02
DAV:   6    -0.380251919505E+02    0.33823E-05   -0.95490E-05 12016   0.172E-01    0.145E-02
DAV:   7    -0.380251931010E+02   -0.11505E-05   -0.27209E-05 13116   0.715E-02    0.480E-03
DAV:   8    -0.380251935126E+02   -0.41159E-06   -0.64770E-06 11280   0.263E-02    0.275E-03
DAV:   9    -0.380251935880E+02   -0.75399E-07   -0.10304E-06 12244   0.173E-02    0.167E-03
DAV:  10    -0.380251936472E+02   -0.59222E-07   -0.34752E-07 11452   0.842E-03    0.505E-04
DAV:  11    -0.380251936543E+02   -0.70581E-08   -0.80085E-08 10420   0.352E-03
   4 F= -.38025194E+02 E0= -.38025159E+02  d E =-.544058E-02
 trial-energy change:   -0.005441  1 .order   -0.005421   -0.007749   -0.003094
 step:   1.6104(harm=  1.6360)  dis= 0.01079  next Energy=   -38.026186 (dE=-0.643E-02)
 bond charge predicted
       N       E                     dE             d eps       ncg     rms          rms(c)
DAV:   1    -0.380303955230E+02   -0.52019E-02   -0.66385E-01  9864   0.474E+00    0.553E-01
DAV:   2    -0.380282249895E+02    0.21705E-02   -0.25875E-02 11984   0.180E+00    0.329E-01
DAV:   3    -0.380262294582E+02    0.19955E-02   -0.38668E-03 13164   0.106E+00    0.997E-02
DAV:   4    -0.380261856990E+02    0.43759E-04   -0.13848E-03 10864   0.608E-01    0.241E-02
DAV:   5    -0.380262092993E+02   -0.23600E-04   -0.31361E-04 11300   0.190E-01    0.196E-02
DAV:   6    -0.380262078657E+02    0.14336E-05   -0.38090E-05 12044   0.110E-01    0.915E-03
DAV:   7    -0.380262083554E+02   -0.48968E-06   -0.10951E-05 13052   0.452E-02    0.299E-03
DAV:   8    -0.380262085257E+02   -0.17027E-06   -0.26545E-06 11308   0.163E-02    0.175E-03
DAV:   9    -0.380262085600E+02   -0.34329E-07   -0.39250E-07 12120   0.105E-02    0.108E-03
DAV:  10    -0.380262085865E+02   -0.26509E-07   -0.13479E-07 11668   0.508E-03    0.335E-04
DAV:  11    -0.380262085881E+02   -0.15762E-08   -0.28805E-08  7920   0.217E-03
   5 F= -.38026209E+02 E0= -.38026177E+02  d E =-.645552E-02
 curvature:  -1.19 expect dE=-0.737E-02 dE for cont linesearch -0.757E-06
 trial: gam= 0.78126 g(F)=  0.441E-02 g(S)=  0.177E-02 ort = 0.855E-04 (trialstep = 0.956E+00)
 search vector abs. value=  0.133E-01
 bond charge predicted
       N       E                     dE             d eps       ncg     rms          rms(c)
DAV:   1    -0.380425468498E+02   -0.16338E-01   -0.17309E+00  9880   0.780E+00    0.926E-01
DAV:   2    -0.380350930354E+02    0.74538E-02   -0.67554E-02 12240   0.303E+00    0.548E-01
DAV:   3    -0.380299720690E+02    0.51210E-02   -0.94219E-03 13492   0.151E+00    0.193E-01
DAV:   4    -0.380295128485E+02    0.45922E-03   -0.32085E-03 11296   0.877E-01    0.448E-02
DAV:   5    -0.380295770090E+02   -0.64161E-04   -0.83567E-04 10824   0.368E-01    0.294E-02
DAV:   6    -0.380295796584E+02   -0.26494E-05   -0.11311E-04 12364   0.161E-01    0.169E-02
DAV:   7    -0.380295804147E+02   -0.75629E-06   -0.28369E-05 12552   0.924E-02    0.546E-03
DAV:   8    -0.380295807720E+02   -0.35731E-06   -0.93110E-06 12084   0.424E-02    0.300E-03
DAV:   9    -0.380295809348E+02   -0.16279E-06   -0.21387E-06 10772   0.197E-02    0.168E-03
DAV:  10    -0.380295809877E+02   -0.52911E-07   -0.46114E-07 11076   0.967E-03    0.735E-04
DAV:  11    -0.380295809974E+02   -0.96397E-08   -0.12529E-07 10828   0.471E-03    0.213E-04
DAV:  12    -0.380295810032E+02   -0.58585E-08   -0.27726E-08  8924   0.142E-03
   6 F= -.38029581E+02 E0= -.38029558E+02  d E =-.337242E-02
 trial-energy change:   -0.003372  1 .order   -0.003366   -0.005975   -0.000757
 step:   1.0942(harm=  1.0942)  dis= 0.00664  next Energy=   -38.029630 (dE=-0.342E-02)
 bond charge predicted
       N       E                     dE             d eps       ncg     rms          rms(c)
DAV:   1    -0.380299110236E+02   -0.33003E-03   -0.36451E-02  9872   0.114E+00    0.135E-01
DAV:   2    -0.380297548229E+02    0.15620E-03   -0.14482E-03 12232   0.451E-01    0.798E-02
DAV:   3    -0.380296483802E+02    0.10644E-03   -0.20108E-04 13400   0.216E-01    0.282E-02
DAV:   4    -0.380296383516E+02    0.10029E-04   -0.68889E-05 11240   0.124E-01    0.650E-03
DAV:   5    -0.380296396499E+02   -0.12983E-05   -0.17239E-05 10868   0.523E-02    0.426E-03
DAV:   6    -0.380296396976E+02   -0.47670E-07   -0.23527E-06 12308   0.234E-02    0.248E-03
DAV:   7    -0.380296396869E+02    0.10671E-07   -0.59312E-07 12344   0.131E-02    0.819E-04
DAV:   8    -0.380296396840E+02    0.29281E-08   -0.19719E-07 12084   0.614E-03    0.425E-04
DAV:   9    -0.380296396877E+02   -0.37508E-08   -0.43882E-08  9600   0.281E-03
   7 F= -.38029640E+02 E0= -.38029618E+02  d E =-.343110E-02
 curvature:  -1.17 expect dE=-0.356E-02 dE for cont linesearch -0.161E-08
 trial: gam= 0.50569 g(F)=  0.186E-02 g(S)=  0.119E-02 ort =-0.429E-05 (trialstep = 0.983E+00)
 search vector abs. value=  0.646E-02
 bond charge predicted
       N       E                     dE             d eps       ncg     rms          rms(c)
DAV:   1    -0.380391259151E+02   -0.94862E-02   -0.99020E-01  9864   0.599E+00    0.682E-01
DAV:   2    -0.380344380733E+02    0.46878E-02   -0.41124E-02 11832   0.270E+00    0.382E-01
DAV:   3    -0.380321641935E+02    0.22739E-02   -0.55992E-03 12284   0.105E+00    0.162E-01
DAV:   4    -0.380317371329E+02    0.42706E-03   -0.15410E-03 11776   0.649E-01    0.359E-02
DAV:   5    -0.380317703681E+02   -0.33235E-04   -0.55659E-04 11040   0.347E-01    0.195E-02
DAV:   6    -0.380317743538E+02   -0.39856E-05   -0.91437E-05 12220   0.121E-01    0.120E-02
DAV:   7    -0.380317747020E+02   -0.34827E-06   -0.15093E-05 11724   0.711E-02    0.462E-03
DAV:   8    -0.380317751493E+02   -0.44726E-06   -0.47422E-06 12220   0.288E-02    0.245E-03
DAV:   9    -0.380317752449E+02   -0.95642E-07   -0.10777E-06 10892   0.150E-02    0.107E-03
DAV:  10    -0.380317752762E+02   -0.31229E-07   -0.27863E-07 11852   0.821E-03    0.570E-04
DAV:  11    -0.380317752737E+02    0.25134E-08   -0.65879E-08 11100   0.378E-03
   8 F= -.38031775E+02 E0= -.38031753E+02  d E =-.213559E-02
 trial-energy change:   -0.002136  1 .order   -0.002136   -0.003000   -0.001272
 step:   1.7075(harm=  1.7075)  dis= 0.00887  next Energy=   -38.032244 (dE=-0.260E-02)
 bond charge predicted
       N       E                     dE             d eps       ncg     rms          rms(c)
DAV:   1    -0.380362697497E+02   -0.44945E-02   -0.53806E-01  9864   0.443E+00    0.504E-01
DAV:   2    -0.380336995507E+02    0.25702E-02   -0.22548E-02 11824   0.199E+00    0.282E-01
DAV:   3    -0.380324626109E+02    0.12369E-02   -0.30426E-03 12296   0.769E-01    0.120E-01
DAV:   4    -0.380322263314E+02    0.23628E-03   -0.83392E-04 11736   0.473E-01    0.264E-02
DAV:   5    -0.380322442966E+02   -0.17965E-04   -0.30220E-04 11020   0.255E-01    0.144E-02
DAV:   6    -0.380322464414E+02   -0.21447E-05   -0.49436E-05 12256   0.901E-02    0.892E-03
DAV:   7    -0.380322465883E+02   -0.14688E-06   -0.82345E-06 11632   0.523E-02    0.343E-03
DAV:   8    -0.380322468142E+02   -0.22597E-06   -0.26152E-06 12176   0.213E-02    0.181E-03
DAV:   9    -0.380322468660E+02   -0.51780E-07   -0.59771E-07 10912   0.113E-02    0.782E-04
DAV:  10    -0.380322468789E+02   -0.12856E-07   -0.15190E-07 11652   0.602E-03    0.419E-04
DAV:  11    -0.380322468759E+02    0.29354E-08   -0.34381E-08  9768   0.277E-03
   9 F= -.38032247E+02 E0= -.38032224E+02  d E =-.260719E-02
 curvature:  -1.81 expect dE=-0.383E-02 dE for cont linesearch -0.331E-07
 trial: gam= 0.67718 g(F)=  0.191E-02 g(S)=  0.209E-03 ort = 0.109E-04 (trialstep = 0.113E+01)
 search vector abs. value=  0.510E-02
 bond charge predicted
       N       E                     dE             d eps       ncg     rms          rms(c)
DAV:   1    -0.380376786789E+02   -0.54318E-02   -0.10879E+00 10044   0.598E+00    0.546E-01
DAV:   2    -0.380357952633E+02    0.18834E-02   -0.31047E-02 11816   0.216E+00    0.331E-01
DAV:   3    -0.380339540136E+02    0.18412E-02   -0.57944E-03 12932   0.147E+00    0.124E-01
DAV:   4    -0.380338054835E+02    0.14853E-03   -0.14716E-03 11668   0.766E-01    0.323E-02
DAV:   5    -0.380338311531E+02   -0.25670E-04   -0.43894E-04 11180   0.158E-01    0.190E-02
DAV:   6    -0.380338302431E+02    0.91004E-06   -0.33437E-05 12444   0.638E-02    0.102E-02
DAV:   7    -0.380338307248E+02   -0.48171E-06   -0.90960E-06 13320   0.373E-02    0.452E-03
DAV:   8    -0.380338307991E+02   -0.74309E-07   -0.24886E-06 12856   0.210E-02    0.193E-03
DAV:   9    -0.380338308838E+02   -0.84637E-07   -0.62848E-07 10892   0.104E-02    0.138E-03
DAV:  10    -0.380338309266E+02   -0.42821E-07   -0.18118E-07 12248   0.482E-03    0.343E-04
DAV:  11    -0.380338309320E+02   -0.54160E-08   -0.42196E-08 11080   0.268E-03
  10 F= -.38033831E+02 E0= -.38033809E+02  d E =-.158406E-02
 trial-energy change:   -0.001584  1 .order   -0.001597   -0.002400   -0.000794
 step:   1.7314(harm=  1.6861)  dis= 0.00920  next Energy=   -38.034041 (dE=-0.179E-02)
 bond charge predicted
       N       E                     dE             d eps       ncg     rms          rms(c)
DAV:   1    -0.380351337808E+02   -0.13029E-02   -0.31144E-01 10044   0.319E+00    0.293E-01
DAV:   2    -0.380345894831E+02    0.54430E-03   -0.88788E-03 11832   0.115E+00    0.177E-01
DAV:   3    -0.380340593391E+02    0.53014E-03   -0.16518E-03 12984   0.786E-01    0.663E-02
DAV:   4    -0.380340171077E+02    0.42231E-04   -0.41847E-04 11664   0.410E-01    0.171E-02
DAV:   5    -0.380340244794E+02   -0.73717E-05   -0.12510E-04 11172   0.834E-02    0.101E-02
DAV:   6    -0.380340241961E+02    0.28332E-06   -0.91587E-06 12644   0.327E-02    0.533E-03
DAV:   7    -0.380340243358E+02   -0.13970E-06   -0.24565E-06 13216   0.193E-02    0.234E-03
DAV:   8    -0.380340243652E+02   -0.29412E-07   -0.68730E-07 12860   0.110E-02    0.101E-03
DAV:   9    -0.380340243886E+02   -0.23384E-07   -0.16009E-07 10692   0.579E-03    0.681E-04
DAV:  10    -0.380340244045E+02   -0.15902E-07   -0.51724E-08 10516   0.240E-03    0.184E-04
DAV:  11    -0.380340244051E+02   -0.59754E-09   -0.10139E-08  7032   0.139E-03
  11 F= -.38034024E+02 E0= -.38034003E+02  d E =-.177753E-02
 curvature:  -2.01 expect dE=-0.214E-02 dE for cont linesearch -0.140E-05
 trial: gam= 0.53707 g(F)=  0.853E-03 g(S)=  0.216E-03 ort =-0.595E-04 (trialstep = 0.125E+01)
 search vector abs. value=  0.248E-02
 bond charge predicted
       N       E                     dE             d eps       ncg     rms          rms(c)
DAV:   1    -0.380359064443E+02   -0.18820E-02   -0.71292E-01  9980   0.535E+00    0.495E-01
DAV:   2    -0.380351610676E+02    0.74538E-03   -0.41442E-02 11552   0.243E+00    0.258E-01
DAV:   3    -0.380344040199E+02    0.75705E-03   -0.36626E-03 12904   0.739E-01    0.129E-01
DAV:   4    -0.380340808955E+02    0.32312E-03   -0.83976E-04 13444   0.373E-01    0.255E-02
DAV:   5    -0.380341011499E+02   -0.20254E-04   -0.31830E-04 10728   0.150E-01    0.127E-02
DAV:   6    -0.380341007780E+02    0.37187E-06   -0.18761E-05 13252   0.449E-02    0.718E-03
DAV:   7    -0.380341006030E+02    0.17495E-06   -0.36486E-06 12584   0.434E-02    0.336E-03
DAV:   8    -0.380341006710E+02   -0.67953E-07   -0.13822E-06 11108   0.151E-02    0.131E-03
DAV:   9    -0.380341006810E+02   -0.10006E-07   -0.36880E-07 13868   0.432E-03    0.840E-04
DAV:  10    -0.380341006803E+02    0.67303E-09   -0.76383E-08 10744   0.203E-03
  12 F= -.38034101E+02 E0= -.38034079E+02  d E =-.762753E-04
 trial-energy change:   -0.000076  1 .order   -0.000073   -0.001295    0.001149
 step:   0.6642(harm=  0.6616)  dis= 0.00203  next Energy=   -38.034369 (dE=-0.345E-03)
 bond charge predicted
       N       E                     dE             d eps       ncg     rms          rms(c)
DAV:   1    -0.380347586009E+02   -0.65792E-03   -0.15661E-01  9976   0.253E+00    0.232E-01
DAV:   2    -0.380346066616E+02    0.15194E-03   -0.92055E-03 11512   0.115E+00    0.121E-01
DAV:   3    -0.380344379164E+02    0.16875E-03   -0.80777E-04 12952   0.347E-01    0.606E-02
DAV:   4    -0.380343653174E+02    0.72599E-04   -0.18681E-04 13436   0.175E-01    0.123E-02
DAV:   5    -0.380343694457E+02   -0.41284E-05   -0.70271E-05 10740   0.687E-02    0.595E-03
DAV:   6    -0.380343695269E+02   -0.81143E-07   -0.40227E-06 13496   0.194E-02    0.339E-03
DAV:   7    -0.380343695925E+02   -0.65612E-07   -0.76912E-07 12964   0.189E-02    0.158E-03
DAV:   8    -0.380343696650E+02   -0.72518E-07   -0.29162E-07 11056   0.726E-03    0.626E-04
DAV:   9    -0.380343696790E+02   -0.13995E-07   -0.87861E-08 13084   0.207E-03    0.403E-04
DAV:  10    -0.380343696855E+02   -0.64965E-08   -0.15288E-08  7260   0.120E-03
  13 F= -.38034370E+02 E0= -.38034348E+02  d E =-.345280E-03
 curvature:  -0.79 expect dE=-0.207E-03 dE for cont linesearch -0.237E-08
 trial: gam= 0.20479 g(F)=  0.211E-03 g(S)=  0.509E-04 ort = 0.272E-05 (trialstep = 0.113E+01)
 search vector abs. value=  0.367E-03
 bond charge predicted
       N       E                     dE             d eps       ncg     rms          rms(c)
DAV:   1    -0.380347405452E+02   -0.37087E-03   -0.90373E-02  9900   0.167E+00    0.138E-01
DAV:   2    -0.380346833302E+02    0.57215E-04   -0.25716E-03 11752   0.572E-01    0.847E-02
DAV:   3    -0.380345766023E+02    0.10673E-03   -0.29436E-04 12880   0.231E-01    0.346E-02
DAV:   4    -0.380345593629E+02    0.17239E-04   -0.91662E-05 11908   0.140E-01    0.753E-03
DAV:   5    -0.380345613107E+02   -0.19477E-05   -0.30064E-05 11464   0.702E-02    0.554E-03
DAV:   6    -0.380345613114E+02   -0.72305E-09   -0.37872E-06 11748   0.297E-02    0.299E-03
DAV:   7    -0.380345613056E+02    0.57589E-08   -0.10959E-06 14000   0.175E-02    0.154E-03
DAV:   8    -0.380345613077E+02   -0.20409E-08   -0.38615E-07 12508   0.740E-03    0.615E-04
DAV:   9    -0.380345613110E+02   -0.33579E-08   -0.11508E-07 12708   0.246E-03    0.449E-04
DAV:  10    -0.380345613083E+02    0.27599E-08   -0.10921E-08  6232   0.136E-03
  14 F= -.38034561E+02 E0= -.38034541E+02  d E =-.191623E-03
 trial-energy change:   -0.000192  1 .order   -0.000193   -0.000298   -0.000088
 step:   1.6247(harm=  1.6045)  dis= 0.00248  next Energy=   -38.034580 (dE=-0.211E-03)
 bond charge predicted
       N       E                     dE             d eps       ncg     rms          rms(c)
DAV:   1    -0.380346148338E+02   -0.53523E-04   -0.17137E-02  9900   0.730E-01    0.600E-02
DAV:   2    -0.380346038617E+02    0.10972E-04   -0.48816E-04 11752   0.250E-01    0.369E-02
DAV:   3    -0.380345838721E+02    0.19990E-04   -0.55735E-05 12876   0.101E-01    0.151E-02
DAV:   4    -0.380345806225E+02    0.32496E-05   -0.17399E-05 11912   0.610E-02    0.327E-03
DAV:   5    -0.380345809835E+02   -0.36102E-06   -0.57062E-06 11416   0.307E-02    0.241E-03
DAV:   6    -0.380345809840E+02   -0.50068E-09   -0.72129E-07 11812   0.129E-02    0.130E-03
DAV:   7    -0.380345809817E+02    0.23620E-08   -0.20531E-07 13948   0.762E-03    0.670E-04
DAV:   8    -0.380345809801E+02    0.15880E-08   -0.71703E-08 10832   0.319E-03
  15 F= -.38034581E+02 E0= -.38034561E+02  d E =-.211295E-03
 curvature:  -1.12 expect dE=-0.167E-03 dE for cont linesearch -0.311E-07
 trial: gam= 0.59847 g(F)=  0.111E-03 g(S)=  0.383E-04 ort =-0.319E-05 (trialstep = 0.123E+01)
 search vector abs. value=  0.277E-03
 bond charge predicted
       N       E                     dE             d eps       ncg     rms          rms(c)
DAV:   1    -0.380347514085E+02   -0.17043E-03   -0.84983E-02 10312   0.174E+00    0.116E-01
DAV:   2    -0.380347397404E+02    0.11668E-04   -0.27090E-03 11128   0.593E-01    0.546E-02
DAV:   3    -0.380347144690E+02    0.25271E-04   -0.24697E-04 13188   0.192E-01    0.279E-02
DAV:   4    -0.380347009377E+02    0.13531E-04   -0.38970E-05 12932   0.931E-02    0.877E-03
DAV:   5    -0.380347008114E+02    0.12629E-06   -0.14588E-05 10772   0.407E-02    0.272E-03
DAV:   6    -0.380347009409E+02   -0.12946E-06   -0.22400E-06 12328   0.216E-02    0.229E-03
DAV:   7    -0.380347009735E+02   -0.32665E-07   -0.33483E-07 11896   0.989E-03    0.112E-03
DAV:   8    -0.380347010278E+02   -0.54289E-07   -0.11372E-07 11840   0.436E-03    0.395E-04
DAV:   9    -0.380347010413E+02   -0.13476E-07   -0.35474E-08  9436   0.223E-03    0.204E-04
DAV:  10    -0.380347010489E+02   -0.75875E-08   -0.65662E-09  6108   0.110E-03
  16 F= -.38034701E+02 E0= -.38034681E+02  d E =-.120069E-03
 trial-energy change:   -0.000120  1 .order   -0.000120   -0.000182   -0.000058
 step:   1.7824(harm=  1.8010)  dis= 0.00241  next Energy=   -38.034714 (dE=-0.133E-03)
 bond charge predicted
       N       E                     dE             d eps       ncg     rms          rms(c)
DAV:   1    -0.380347250730E+02   -0.24032E-04   -0.17099E-02 10316   0.780E-01    0.518E-02
DAV:   2    -0.380347227695E+02    0.23035E-05   -0.54221E-04 11120   0.265E-01    0.245E-02
DAV:   3    -0.380347174496E+02    0.53199E-05   -0.49461E-05 13100   0.863E-02    0.125E-02
DAV:   4    -0.380347146738E+02    0.27759E-05   -0.78748E-06 12844   0.420E-02    0.392E-03
DAV:   5    -0.380347146113E+02    0.62448E-07   -0.29565E-06 10772   0.185E-02    0.122E-03
DAV:   6    -0.380347146392E+02   -0.27846E-07   -0.45450E-07 12320   0.978E-03    0.103E-03
DAV:   7    -0.380347146530E+02   -0.13806E-07   -0.66904E-08  9984   0.445E-03    0.499E-04
DAV:   8    -0.380347146754E+02   -0.22389E-07   -0.19919E-08  7528   0.199E-03    0.176E-04
DAV:   9    -0.380347146810E+02   -0.56589E-08   -0.90999E-09  6084   0.111E-03
  17 F= -.38034715E+02 E0= -.38034694E+02  d E =-.133701E-03
 curvature:  -1.69 expect dE=-0.182E-03 dE for cont linesearch -0.219E-07
 trial: gam= 0.68617 g(F)=  0.104E-03 g(S)=  0.374E-05 ort = 0.190E-05 (trialstep = 0.134E+01)
 search vector abs. value=  0.241E-03
 bond charge predicted
       N       E                     dE             d eps       ncg     rms          rms(c)
DAV:   1    -0.380347118120E+02    0.28634E-05   -0.88746E-02  9896   0.168E+00    0.726E-02
DAV:   2    -0.380348147365E+02   -0.10292E-03   -0.19915E-03 12312   0.359E-01    0.436E-02
DAV:   3    -0.380347934370E+02    0.21299E-04   -0.12501E-04 12468   0.124E-01    0.226E-02
DAV:   4    -0.380347853810E+02    0.80560E-05   -0.29767E-05 13328   0.901E-02    0.689E-03
DAV:   5    -0.380347858609E+02   -0.47990E-06   -0.12089E-05 10888   0.447E-02    0.309E-03
DAV:   6    -0.380347859196E+02   -0.58707E-07   -0.16614E-06 12244   0.174E-02    0.195E-03
DAV:   7    -0.380347859250E+02   -0.53788E-08   -0.30356E-07 11744   0.919E-03    0.109E-03
DAV:   8    -0.380347859458E+02   -0.20817E-07   -0.12529E-07 12276   0.446E-03    0.297E-04
DAV:   9    -0.380347859488E+02   -0.29181E-08   -0.29773E-08  8916   0.174E-03
  18 F= -.38034786E+02 E0= -.38034766E+02  d E =-.712677E-04
 trial-energy change:   -0.000071  1 .order   -0.000072   -0.000146    0.000002
 step:   1.3185(harm=  1.3191)  dis= 0.00156  next Energy=   -38.034786 (dE=-0.713E-04)
 bond charge predicted
       N       E                     dE             d eps       ncg     rms          rms(c)
DAV:   1    -0.380347859525E+02   -0.66884E-08   -0.24845E-05 10040   0.282E-02    0.126E-03
DAV:   2    -0.380347859829E+02   -0.30406E-07   -0.58275E-07 12328   0.679E-03    0.752E-04
DAV:   3    -0.380347859851E+02   -0.21701E-08   -0.41748E-08 10324   0.301E-03
  19 F= -.38034786E+02 E0= -.38034766E+02  d E =-.713041E-04
 curvature:  -1.45 expect dE=-0.679E-04 dE for cont linesearch -0.147E-08
 trial: gam= 0.46052 g(F)=  0.357E-04 g(S)=  0.110E-04 ort =-0.494E-06 (trialstep = 0.134E+01)
 search vector abs. value=  0.973E-04
 bond charge predicted
       N       E                     dE             d eps       ncg     rms          rms(c)
DAV:   1    -0.380348084710E+02   -0.22488E-04   -0.34372E-02  9940   0.104E+00    0.597E-02
DAV:   2    -0.380348402399E+02   -0.31769E-04   -0.81503E-04 12096   0.243E-01    0.346E-02
DAV:   3    -0.380348243986E+02    0.15841E-04   -0.63422E-05 13656   0.104E-01    0.165E-02
DAV:   4    -0.380348210210E+02    0.33776E-05   -0.14999E-05 13136   0.765E-02    0.451E-03
DAV:   5    -0.380348212542E+02   -0.23312E-06   -0.52570E-06 10728   0.263E-02    0.227E-03
DAV:   6    -0.380348212931E+02   -0.38895E-07   -0.92216E-07 12312   0.120E-02    0.145E-03
DAV:   7    -0.380348212917E+02    0.13770E-08   -0.17710E-07 12440   0.672E-03    0.963E-04
DAV:   8    -0.380348212939E+02   -0.22087E-08   -0.68482E-08 12320   0.394E-03
  20 F= -.38034821E+02 E0= -.38034802E+02  d E =-.353088E-04
 trial-energy change:   -0.000035  1 .order   -0.000035   -0.000062   -0.000009
 step:   1.5499(harm=  1.5499)  dis= 0.00105  next Energy=   -38.034822 (dE=-0.360E-04)
 bond charge predicted
       N       E                     dE             d eps       ncg     rms          rms(c)
DAV:   1    -0.380348216269E+02   -0.33522E-06   -0.87753E-04  9940   0.166E-01    0.954E-03
DAV:   2    -0.380348224326E+02   -0.80565E-06   -0.20729E-05 12096   0.392E-02    0.553E-03
DAV:   3    -0.380348220440E+02    0.38854E-06   -0.16843E-06 13672   0.176E-02    0.267E-03
DAV:   4    -0.380348219567E+02    0.87294E-07   -0.39419E-07 13128   0.128E-02    0.732E-04
DAV:   5    -0.380348219654E+02   -0.86661E-08   -0.14050E-07 10708   0.419E-03    0.369E-04
DAV:   6    -0.380348219668E+02   -0.13624E-08   -0.22008E-08  7200   0.192E-03
  21 F= -.38034822E+02 E0= -.38034802E+02  d E =-.359817E-04
 curvature:  -1.62 expect dE=-0.381E-04 dE for cont linesearch -0.927E-09
 trial: gam= 0.49485 g(F)=  0.225E-04 g(S)=  0.981E-06 ort =-0.236E-06 (trialstep = 0.138E+01)
 search vector abs. value=  0.470E-04
 bond charge predicted
       N       E                     dE             d eps       ncg     rms          rms(c)
DAV:   1    -0.380348136863E+02    0.82791E-05   -0.17727E-02  9940   0.753E-01    0.388E-02
DAV:   2    -0.380348375658E+02   -0.23879E-04   -0.49191E-04 11320   0.191E-01    0.198E-02
DAV:   3    -0.380348357124E+02    0.18533E-05   -0.37047E-05 12644   0.640E-02    0.107E-02
DAV:   4    -0.380348340677E+02    0.16447E-05   -0.61175E-06 13296   0.351E-02    0.312E-03
DAV:   5    -0.380348341771E+02   -0.10942E-06   -0.22369E-06 10848   0.143E-02    0.117E-03
DAV:   6    -0.380348341939E+02   -0.16759E-07   -0.36688E-07 12992   0.659E-03    0.866E-04
DAV:   7    -0.380348341877E+02    0.61636E-08   -0.41689E-08 10000   0.351E-03
  22 F= -.38034834E+02 E0= -.38034815E+02  d E =-.122210E-04
 trial-energy change:   -0.000012  1 .order   -0.000012   -0.000032    0.000008
 step:   1.1098(harm=  1.1098)  dis= 0.00087  next Energy=   -38.034835 (dE=-0.129E-04)
 bond charge predicted
       N       E                     dE             d eps       ncg     rms          rms(c)
DAV:   1    -0.380348341847E+02    0.92473E-08   -0.67481E-04  9940   0.147E-01    0.754E-03
DAV:   2    -0.380348351415E+02   -0.95683E-06   -0.18790E-05 11276   0.377E-02    0.387E-03
DAV:   3    -0.380348350073E+02    0.13423E-06   -0.14083E-06 12668   0.128E-02    0.209E-03
DAV:   4    -0.380348349234E+02    0.83911E-07   -0.22922E-07 13076   0.691E-03    0.585E-04
DAV:   5    -0.380348349147E+02    0.86861E-08   -0.86612E-08 10732   0.297E-03
  23 F= -.38034835E+02 E0= -.38034815E+02  d E =-.129479E-04
 curvature:  -1.12 expect dE=-0.181E-04 dE for cont linesearch -0.179E-08
 trial: gam= 0.68361 g(F)=  0.125E-04 g(S)=  0.373E-05 ort = 0.274E-06 (trialstep = 0.133E+01)
 search vector abs. value=  0.386E-04
 bond charge predicted
       N       E                     dE             d eps       ncg     rms          rms(c)
DAV:   1    -0.380348365399E+02   -0.16166E-05   -0.14175E-02  9868   0.676E-01    0.422E-02
DAV:   2    -0.380348523369E+02   -0.15797E-04   -0.47465E-04 11880   0.196E-01    0.217E-02
DAV:   3    -0.380348481469E+02    0.41900E-05   -0.36191E-05 12172   0.652E-02    0.118E-02
DAV:   4    -0.380348459343E+02    0.22126E-05   -0.71625E-06 13372   0.397E-02    0.314E-03
DAV:   5    -0.380348460680E+02   -0.13374E-06   -0.26049E-06 10756   0.171E-02    0.161E-03
DAV:   6    -0.380348460833E+02   -0.15294E-07   -0.46194E-07 13320   0.851E-03    0.100E-03
DAV:   7    -0.380348460742E+02    0.91341E-08   -0.59093E-08 10652   0.435E-03
  24 F= -.38034846E+02 E0= -.38034827E+02  d E =-.111595E-04
 trial-energy change:   -0.000011  1 .order   -0.000010   -0.000022    0.000002
 step:   1.2440(harm=  1.2202)  dis= 0.00063  next Energy=   -38.034846 (dE=-0.112E-04)
 bond charge predicted
       N       E                     dE             d eps       ncg     rms          rms(c)
DAV:   1    -0.380348461000E+02   -0.16687E-07   -0.52748E-05  9896   0.414E-02    0.258E-03
DAV:   2    -0.380348461724E+02   -0.72362E-07   -0.17802E-06 11808   0.123E-02    0.133E-03
DAV:   3    -0.380348461398E+02    0.32550E-07   -0.13021E-07 12232   0.403E-03    0.719E-04
DAV:   4    -0.380348461246E+02    0.15201E-07   -0.20887E-08  7268   0.238E-03    0.173E-04
DAV:   5    -0.380348461217E+02    0.29404E-08   -0.11871E-08  5512   0.119E-03
  25 F= -.38034846E+02 E0= -.38034827E+02  d E =-.112070E-04
 curvature:  -1.36 expect dE=-0.100E-04 dE for cont linesearch -0.112E-08
 trial: gam= 0.47745 g(F)=  0.683E-05 g(S)=  0.541E-06 ort =-0.178E-06 (trialstep = 0.131E+01)
 search vector abs. value=  0.160E-04
 bond charge predicted
       N       E                     dE             d eps       ncg     rms          rms(c)
DAV:   1    -0.380348437594E+02    0.23652E-05   -0.60883E-03  9856   0.425E-01    0.209E-02
DAV:   2    -0.380348557874E+02   -0.12028E-04   -0.17482E-04 11968   0.961E-02    0.121E-02
DAV:   3    -0.380348541681E+02    0.16192E-05   -0.74354E-06 12564   0.267E-02    0.639E-03
DAV:   4    -0.380348535137E+02    0.65446E-06   -0.19542E-06 11836   0.155E-02    0.176E-03
DAV:   5    -0.380348535280E+02   -0.14297E-07   -0.66715E-07 11296   0.747E-03    0.855E-04
DAV:   6    -0.380348535311E+02   -0.31687E-08   -0.12624E-07 12688   0.281E-03    0.594E-04
DAV:   7    -0.380348535293E+02    0.18499E-08   -0.14639E-08  6576   0.138E-03
  26 F= -.38034854E+02 E0= -.38034834E+02  d E =-.740760E-05
 trial-energy change:   -0.000007  1 .order   -0.000007   -0.000010   -0.000005
 step:   2.9472(harm=  2.9472)  dis= 0.00093  next Energy=   -38.034857 (dE=-0.107E-04)
 bond charge predicted
       N       E                     dE             d eps       ncg     rms          rms(c)
DAV:   1    -0.380348415194E+02    0.12012E-04   -0.95390E-03  9856   0.532E-01    0.262E-02
DAV:   2    -0.380348604161E+02   -0.18897E-04   -0.27445E-04 11968   0.121E-01    0.151E-02
DAV:   3    -0.380348579176E+02    0.24985E-05   -0.11730E-05 12552   0.331E-02    0.800E-03
DAV:   4    -0.380348568913E+02    0.10263E-05   -0.30331E-06 11844   0.193E-02    0.222E-03
DAV:   5    -0.380348569145E+02   -0.23179E-07   -0.10550E-06 11276   0.916E-03    0.108E-03
DAV:   6    -0.380348569193E+02   -0.47571E-08   -0.19700E-07 12864   0.333E-03    0.731E-04
DAV:   7    -0.380348569161E+02    0.31614E-08   -0.21704E-08  7672   0.134E-03
  27 F= -.38034857E+02 E0= -.38034838E+02  d E =-.107944E-04
 curvature:  -3.23 expect dE=-0.259E-04 dE for cont linesearch -0.369E-09
 trial: gam= 1.03553 g(F)=  0.618E-05 g(S)=  0.183E-05 ort = 0.427E-07 (trialstep = 0.104E+01)
 search vector abs. value=  0.252E-04
 bond charge predicted
       N       E                     dE             d eps       ncg     rms          rms(c)
DAV:   1    -0.380348578169E+02   -0.89762E-06   -0.60238E-03  9856   0.455E-01    0.311E-02
DAV:   2    -0.380348636719E+02   -0.58550E-05   -0.24329E-04 11672   0.163E-01    0.151E-02
DAV:   3    -0.380348620061E+02    0.16658E-05   -0.17955E-05 12496   0.499E-02    0.812E-03
DAV:   4    -0.380348608916E+02    0.11145E-05   -0.32570E-06 12996   0.245E-02    0.230E-03
DAV:   5    -0.380348609534E+02   -0.61852E-07   -0.11633E-06 10820   0.995E-03    0.945E-04
DAV:   6    -0.380348609481E+02    0.53356E-08   -0.14773E-07 12776   0.539E-03    0.599E-04
DAV:   7    -0.380348609366E+02    0.11502E-07   -0.16341E-08  6500   0.282E-03    0.303E-04
DAV:   8    -0.380348609250E+02    0.11573E-07   -0.94541E-09  6124   0.950E-04    0.972E-05
DAV:   9    -0.380348609257E+02   -0.64256E-09   -0.43219E-09  5932   0.725E-04
  28 F= -.38034861E+02 E0= -.38034841E+02  d E =-.400955E-05
 trial-energy change:   -0.000004  1 .order   -0.000004   -0.000008    0.000000
 step:   0.9973(harm=  0.9973)  dis= 0.00043  next Energy=   -38.034861 (dE=-0.401E-05)
 bond charge predicted
       N       E                     dE             d eps       ncg     rms          rms(c)
DAV:   1    -0.380348609371E+02   -0.12045E-07   -0.88158E-06  9892   0.175E-02    0.121E-03
DAV:   2    -0.380348609504E+02   -0.13358E-07   -0.36796E-07 11672   0.643E-03    0.584E-04
DAV:   3    -0.380348609374E+02    0.13046E-07   -0.25108E-08  8584   0.194E-03    0.310E-04
DAV:   4    -0.380348609312E+02    0.61746E-08   -0.51931E-09  5296   0.976E-04
  29 F= -.38034861E+02 E0= -.38034841E+02  d E =-.401509E-05
 curvature:  -1.56 expect dE=-0.803E-05 dE for cont linesearch -0.389E-09
 trial: gam= 0.65153 g(F)=  0.447E-05 g(S)=  0.668E-06 ort = 0.793E-07 (trialstep = 0.103E+01)
 search vector abs. value=  0.160E-04
 bond charge predicted
       N       E                     dE             d eps       ncg     rms          rms(c)
DAV:   1    -0.380348591197E+02    0.18177E-05   -0.39385E-03  9860   0.333E-01    0.155E-02
DAV:   2    -0.380348658667E+02   -0.67471E-05   -0.10018E-04 12320   0.692E-02    0.920E-03
DAV:   3    -0.380348647241E+02    0.11426E-05   -0.27564E-06 12608   0.177E-02    0.484E-03
DAV:   4    -0.380348643427E+02    0.38135E-06   -0.12218E-06 11720   0.137E-02    0.127E-03
DAV:   5    -0.380348643815E+02   -0.38816E-07   -0.43130E-07 11652   0.982E-03    0.667E-04
DAV:   6    -0.380348643858E+02   -0.42974E-08   -0.70309E-08  9928   0.308E-03
  30 F= -.38034864E+02 E0= -.38034845E+02  d E =-.345464E-05
 trial-energy change:   -0.000003  1 .order   -0.000003   -0.000005   -0.000001
 step:   1.3787(harm=  1.4185)  dis= 0.00052  next Energy=   -38.034865 (dE=-0.371E-05)
 bond charge predicted
       N       E                     dE             d eps       ncg     rms          rms(c)
DAV:   1    -0.380348640320E+02    0.34956E-06   -0.45539E-04  9860   0.113E-01    0.532E-03
DAV:   2    -0.380348648316E+02   -0.79965E-06   -0.11789E-05 12288   0.240E-02    0.318E-03
DAV:   3    -0.380348647094E+02    0.12218E-06   -0.33557E-07 12500   0.802E-03    0.169E-03
DAV:   4    -0.380348646702E+02    0.39227E-07   -0.15520E-07 11868   0.575E-03    0.473E-04
DAV:   5    -0.380348646777E+02   -0.75020E-08   -0.57451E-08 10696   0.360E-03
  31 F= -.38034865E+02 E0= -.38034845E+02  d E =-.374652E-05
 curvature:  -2.16 expect dE=-0.502E-05 dE for cont linesearch -0.456E-08
 trial: gam= 0.42365 g(F)=  0.188E-05 g(S)=  0.441E-06 ort = 0.184E-06 (trialstep = 0.110E+01)
 search vector abs. value=  0.534E-05
 bond charge predicted
       N       E                     dE             d eps       ncg     rms          rms(c)
DAV:   1    -0.380348661279E+02   -0.14577E-05   -0.14438E-03  9956   0.223E-01    0.156E-02
DAV:   2    -0.380348674221E+02   -0.12941E-05   -0.62776E-05 11272   0.821E-02    0.754E-03
DAV:   3    -0.380348668409E+02    0.58118E-06   -0.46365E-06 12036   0.260E-02    0.391E-03
DAV:   4    -0.380348665193E+02    0.32157E-06   -0.89223E-07 12456   0.130E-02    0.129E-03
DAV:   5    -0.380348664977E+02    0.21619E-07   -0.36563E-07 10792   0.522E-03    0.445E-04
DAV:   6    -0.380348664975E+02    0.19418E-09   -0.35254E-08  8624   0.269E-03
  32 F= -.38034866E+02 E0= -.38034847E+02  d E =-.181979E-05
 trial-energy change:   -0.000002  1 .order   -0.000002   -0.000003   -0.000001
 step:   1.7029(harm=  1.7029)  dis= 0.00045  next Energy=   -38.034867 (dE=-0.204E-05)
 bond charge predicted
       N       E                     dE             d eps       ncg     rms          rms(c)
DAV:   1    -0.380348667395E+02   -0.24175E-06   -0.43649E-04  9964   0.122E-01    0.861E-03
DAV:   2    -0.380348671474E+02   -0.40795E-06   -0.18947E-05 11264   0.453E-02    0.417E-03
DAV:   3    -0.380348669436E+02    0.20384E-06   -0.14085E-06 12112   0.145E-02    0.216E-03
DAV:   4    -0.380348668374E+02    0.10612E-06   -0.26825E-07 12456   0.725E-03    0.707E-04
DAV:   5    -0.380348668255E+02    0.11961E-07   -0.11010E-07 10744   0.293E-03    0.247E-04
DAV:   6    -0.380348668254E+02    0.90040E-10   -0.10346E-08  6124   0.161E-03
  33 F= -.38034867E+02 E0= -.38034847E+02  d E =-.214768E-05
 curvature:  -1.89 expect dE=-0.193E-05 dE for cont linesearch -0.215E-08
 trial: gam= 0.41381 g(F)=  0.750E-06 g(S)=  0.267E-06 ort = 0.778E-07 (trialstep = 0.122E+01)
 search vector abs. value=  0.200E-05
 bond charge predicted
       N       E                     dE             d eps       ncg     rms          rms(c)
DAV:   1    -0.380348665148E+02    0.31069E-06   -0.63595E-04  9904   0.141E-01    0.745E-03
DAV:   2    -0.380348676480E+02   -0.11332E-05   -0.19510E-05 11096   0.366E-02    0.426E-03
DAV:   3    -0.380348674416E+02    0.20640E-06   -0.12321E-06 12820   0.122E-02    0.220E-03
DAV:   4    -0.380348673420E+02    0.99514E-07   -0.27352E-07 11476   0.764E-03    0.508E-04
DAV:   5    -0.380348673451E+02   -0.30573E-08   -0.10660E-07 11044   0.347E-03    0.297E-04
DAV:   6    -0.380348673441E+02    0.10173E-08   -0.10972E-08  6152   0.152E-03
  34 F= -.38034867E+02 E0= -.38034848E+02  d E =-.518681E-06
 trial-energy change:   -0.000001  1 .order   -0.000001   -0.000001    0.000000
 step:   1.0767(harm=  1.0767)  dis= 0.00015  next Energy=   -38.034867 (dE=-0.565E-06)
 bond charge predicted
       N       E                     dE             d eps       ncg     rms          rms(c)
DAV:   1    -0.380348673396E+02    0.55434E-08   -0.86500E-06  9944   0.165E-02    0.855E-04
DAV:   2    -0.380348673583E+02   -0.18736E-07   -0.25901E-07 11156   0.420E-03    0.495E-04
DAV:   3    -0.380348673518E+02    0.64629E-08   -0.13343E-08  6168   0.138E-03
  35 F= -.38034867E+02 E0= -.38034848E+02  d E =-.526428E-06
 curvature:  -1.02 expect dE=-0.361E-06 dE for cont linesearch -0.147E-11
 trial: gam= 0.42208 g(F)=  0.275E-06 g(S)=  0.769E-07 ort = 0.169E-08 (trialstep = 0.119E+01)
 search vector abs. value=  0.709E-06
 bond charge predicted
       N       E                     dE             d eps       ncg     rms          rms(c)
DAV:   1    -0.380348671405E+02    0.21783E-06   -0.21567E-04  9856   0.804E-02    0.417E-03
DAV:   2    -0.380348675617E+02   -0.42125E-06   -0.69719E-06 12128   0.198E-02    0.245E-03
DAV:   3    -0.380348674996E+02    0.62145E-07   -0.37540E-07 11920   0.653E-03    0.137E-03
DAV:   4    -0.380348674728E+02    0.26754E-07   -0.98558E-08 12636   0.590E-03    0.431E-04
DAV:   5    -0.380348674777E+02   -0.49167E-08   -0.35802E-08  9552   0.246E-03
  36 F= -.38034867E+02 E0= -.38034848E+02  d E =-.125903E-06
 trial-energy change:   -0.000000  1 .order   -0.000000   -0.000000    0.000000
 step:   0.9184(harm=  0.9184)  dis= 0.00006  next Energy=   -38.034868 (dE=-0.162E-06)
 bond charge predicted
       N       E                     dE             d eps       ncg     rms          rms(c)
DAV:   1    -0.380348674831E+02   -0.10311E-07   -0.11301E-05  9856   0.184E-02    0.957E-04
DAV:   2    -0.380348675063E+02   -0.23206E-07   -0.35642E-07 12120   0.488E-03    0.571E-04
DAV:   3    -0.380348675001E+02    0.61905E-08   -0.21412E-08  6944   0.222E-03
  37 F= -.38034868E+02 E0= -.38034848E+02  d E =-.148313E-06
 curvature:  -0.92 expect dE=-0.167E-06 dE for cont linesearch -0.235E-08
 trial: gam= 0.65665 g(F)=  0.949E-07 g(S)=  0.865E-07 ort =-0.425E-07 (trialstep = 0.114E+01)
 search vector abs. value=  0.431E-06
 bond charge predicted
       N       E                     dE             d eps       ncg     rms          rms(c)
DAV:   1    -0.380348676077E+02   -0.10134E-06   -0.11044E-04  9864   0.628E-02    0.509E-03
DAV:   2    -0.380348676344E+02   -0.26728E-07   -0.49275E-06 11200   0.254E-02    0.267E-03
DAV:   3    -0.380348676113E+02    0.23148E-07   -0.44740E-07 12228   0.849E-03    0.138E-03
DAV:   4    -0.380348675981E+02    0.13162E-07   -0.89417E-08 11848   0.540E-03    0.329E-04
DAV:   5    -0.380348676027E+02   -0.46375E-08   -0.34543E-08  8728   0.236E-03
  38 F= -.38034868E+02 E0= -.38034848E+02  d E =-.102589E-06
 trial-energy change:   -0.000000  1 .order   -0.000000   -0.000000    0.000000
 step:   1.0717(harm=  1.0717)  dis= 0.00006  next Energy=   -38.034868 (dE=-0.822E-07)
 bond charge predicted
       N       E                     dE             d eps       ncg     rms          rms(c)
DAV:   1    -0.380348676047E+02   -0.65993E-08   -0.35950E-07 10028   0.370E-03    0.287E-04
DAV:   2    -0.380348676040E+02    0.66348E-09   -0.13996E-08  6236   0.167E-03
  39 F= -.38034868E+02 E0= -.38034848E+02  d E =-.103887E-06
 curvature:  -1.51 expect dE=-0.204E-06 dE for cont linesearch -0.384E-09
 trial: gam= 0.54805 g(F)=  0.106E-06 g(S)=  0.300E-07 ort = 0.105E-07 (trialstep = 0.112E+01)
 search vector abs. value=  0.277E-06
 bond charge predicted
       N       E                     dE             d eps       ncg     rms          rms(c)
DAV:   1    -0.380348678350E+02   -0.23027E-06   -0.61688E-05  9900   0.459E-02    0.425E-03
DAV:   2    -0.380348677664E+02    0.68529E-07   -0.24965E-06 12136   0.170E-02    0.240E-03
DAV:   3    -0.380348677066E+02    0.59835E-07   -0.25278E-07 12376   0.626E-03    0.106E-03
DAV:   4    -0.380348676917E+02    0.14940E-07   -0.68890E-08 10848   0.350E-03    0.227E-04
DAV:   5    -0.380348676923E+02   -0.60936E-09   -0.20316E-08  6352   0.162E-03
  40 F= -.38034868E+02 E0= -.38034849E+02  d E =-.882414E-07
 trial-energy change:   -0.000000  1 .order   -0.000000   -0.000000   -0.000000
 step:   1.6139(harm=  1.6139)  dis= 0.00007  next Energy=   -38.034868 (dE=-0.114E-06)
 bond charge predicted
       N       E                     dE             d eps       ncg     rms          rms(c)
DAV:   1    -0.380348677239E+02   -0.32193E-07   -0.11772E-05  9920   0.201E-02    0.189E-03
DAV:   2    -0.380348677032E+02    0.20656E-07   -0.47249E-07 12176   0.738E-03    0.106E-03
DAV:   3    -0.380348676962E+02    0.70113E-08   -0.47163E-08 10844   0.261E-03
  41 F= -.38034868E+02 E0= -.38034849E+02  d E =-.921582E-07
 curvature:  -1.58 expect dE=-0.157E-06 dE for cont linesearch -0.199E-07
 trial: gam= 0.00000 g(F)=  0.482E-07 g(S)=  0.510E-07 ort = 0.590E-07 (trialstep = 0.122E+01)
 search vector abs. value=  0.993E-07
 reached required accuracy - stopping structural energy minimisation
 writing wavefunctions
Thu Jan  6 02:33:48 CST 2022
