Wed Jan  5 23:43:20 CST 2022
 running on   48 total cores
 distrk:  each k-point on   48 cores,    1 groups
 distr:  one band on   24 cores,    2 groups
 using from now: INCAR     
 vasp.5.3.5 31Mar14 (build Jan 11 2016 19:50:55) complex                        
  
 POSCAR found type information on POSCAR  Zn Ga N  O 
 POSCAR found :  4 types and       8 ions
 scaLAPACK will be used

 ----------------------------------------------------------------------------- 
|                                                                             |
|           W    W    AA    RRRRR   N    N  II  N    N   GGGG   !!!           |
|           W    W   A  A   R    R  NN   N  II  NN   N  G    G  !!!           |
|           W    W  A    A  R    R  N N  N  II  N N  N  G       !!!           |
|           W WW W  AAAAAA  RRRRR   N  N N  II  N  N N  G  GGG   !            |
|           WW  WW  A    A  R   R   N   NN  II  N   NN  G    G                |
|           W    W  A    A  R    R  N    N  II  N    N   GGGG   !!!           |
|                                                                             |
|      For optimal performance we recommend to set                            |
|        NCORE= 4 - approx SQRT( number of cores)                             |
|      NCORE specifies how many cores store one orbital (NPAR=cpu/NCORE).     |
|      This setting can  greatly improve the performance of VASP for DFT.     |
|      The default, NPAR=number of cores might be grossly inefficient         |
|      on modern multi-core architectures or massively parallel machines.     |
|      Do your own testing !!!!                                               |
|      Unfortunately you need to use the default for GW and RPA calculations. |
|      (for HF NCORE is supported but not extensively tested yet)             |
|                                                                             |
 ----------------------------------------------------------------------------- 

 LDA part: xc-table for Pade appr. of Perdew
 POSCAR, INCAR and KPOINTS ok, starting setup
 WARNING: small aliasing (wrap around) errors must be expected
 FFT: planning ...
 WAVECAR not read
 entering main loop
       N       E                     dE             d eps       ncg     rms          rms(c)
DAV:   1     0.859097569914E+03    0.85910E+03   -0.41473E+04 10172   0.284E+03
DAV:   2     0.141106232764E+03   -0.71799E+03   -0.68981E+03 10200   0.709E+02
DAV:   3    -0.281332667950E+02   -0.16924E+03   -0.16501E+03 11496   0.248E+02
DAV:   4    -0.436427619202E+02   -0.15509E+02   -0.15353E+02 12932   0.768E+01
DAV:   5    -0.440604229132E+02   -0.41766E+00   -0.41592E+00 11368   0.121E+01    0.148E+01
DAV:   6    -0.384642431261E+02    0.55962E+01   -0.21079E+01 18180   0.529E+01    0.664E+00
DAV:   7    -0.386520877412E+02   -0.18784E+00   -0.53443E+00 10444   0.144E+01    0.462E+00
DAV:   8    -0.386897080328E+02   -0.37620E-01   -0.28532E+00 16184   0.129E+01    0.293E+00
DAV:   9    -0.384971531370E+02    0.19255E+00   -0.82264E-01 16116   0.103E+01    0.672E-01
DAV:  10    -0.385144149661E+02   -0.17262E-01   -0.27228E-01 10936   0.276E+00    0.489E-01
DAV:  11    -0.385125229077E+02    0.18921E-02   -0.27787E-02 14296   0.155E+00    0.133E-01
DAV:  12    -0.385129765567E+02   -0.45365E-03   -0.34232E-03 10440   0.504E-01    0.541E-02
DAV:  13    -0.385131576207E+02   -0.18106E-03   -0.65804E-04 15100   0.432E-01    0.342E-02
DAV:  14    -0.385131911671E+02   -0.33546E-04   -0.14202E-04 11444   0.128E-01    0.269E-02
DAV:  15    -0.385131863263E+02    0.48408E-05   -0.11219E-04 15044   0.731E-02    0.787E-03
DAV:  16    -0.385131872731E+02   -0.94675E-06   -0.18010E-05 10644   0.331E-02    0.529E-03
DAV:  17    -0.385131874212E+02   -0.14815E-06   -0.30827E-06 14864   0.260E-02    0.211E-03
DAV:  18    -0.385131874938E+02   -0.72603E-07   -0.11108E-06 13568   0.947E-03    0.687E-04
DAV:  19    -0.385131875055E+02   -0.11654E-07   -0.15194E-07 10912   0.333E-03    0.367E-04
DAV:  20    -0.385131875100E+02   -0.44788E-08   -0.38123E-08 10356   0.357E-03
   1 F= -.38513188E+02 E0= -.38513188E+02  d E =-.385132E+02
 curvature:   0.00 expect dE= 0.000E+00 dE for cont linesearch  0.000E+00
 trial: gam= 0.00000 g(F)=  0.291E-02 g(S)=  0.169E-01 ort = 0.000E+00 (trialstep = 0.100E+01)
 search vector abs. value=  0.198E-01
 bond charge predicted
       N       E                     dE             d eps       ncg     rms          rms(c)
DAV:   1    -0.386311374752E+02   -0.11795E+00   -0.31266E+00 11112   0.164E+01    0.246E+00
DAV:   2    -0.385381949565E+02    0.92943E-01   -0.53660E-01 11696   0.927E+00    0.106E+00
DAV:   3    -0.385213377090E+02    0.16857E-01   -0.43176E-02 13904   0.247E+00    0.513E-01
DAV:   4    -0.385160770765E+02    0.52606E-02   -0.10858E-02 13948   0.150E+00    0.168E-01
DAV:   5    -0.385158283481E+02    0.24873E-03   -0.36088E-03 10748   0.672E-01    0.683E-02
DAV:   6    -0.385158027185E+02    0.25630E-04   -0.10933E-03 14312   0.297E-01    0.403E-02
DAV:   7    -0.385157924382E+02    0.10280E-04   -0.21804E-04 12152   0.189E-01    0.192E-02
DAV:   8    -0.385157948442E+02   -0.24060E-05   -0.77146E-05 13980   0.563E-02    0.106E-02
DAV:   9    -0.385157958297E+02   -0.98550E-06   -0.12898E-05 12968   0.382E-02    0.454E-03
DAV:  10    -0.385157962857E+02   -0.45594E-06   -0.21154E-06 12868   0.176E-02    0.185E-03
DAV:  11    -0.385157963470E+02   -0.61279E-07   -0.92577E-07 14156   0.757E-03    0.902E-04
DAV:  12    -0.385157963817E+02   -0.34738E-07   -0.24090E-07 11924   0.394E-03    0.687E-04
DAV:  13    -0.385157963841E+02   -0.23711E-08   -0.64333E-08 10748   0.293E-03
   2 F= -.38515796E+02 E0= -.38515796E+02  d E =-.260887E-02
 trial-energy change:   -0.002609  1 .order   -0.002417   -0.019803    0.014969
 step:   0.5776(harm=  0.5695)  dis= 0.00311  next Energy=   -38.518943 (dE=-0.576E-02)
 bond charge predicted
       N       E                     dE             d eps       ncg     rms          rms(c)
DAV:   1    -0.385396622058E+02   -0.23866E-01   -0.55532E-01 10872   0.681E+00    0.104E+00
DAV:   2    -0.385228324270E+02    0.16830E-01   -0.95633E-02 11688   0.400E+00    0.444E-01
DAV:   3    -0.385199322466E+02    0.29002E-02   -0.80574E-03 14792   0.110E+00    0.218E-01
DAV:   4    -0.385190000383E+02    0.93221E-03   -0.17688E-03 14188   0.641E-01    0.706E-02
DAV:   5    -0.385189596097E+02    0.40429E-04   -0.61922E-04 10728   0.286E-01    0.277E-02
DAV:   6    -0.385189576641E+02    0.19456E-05   -0.17410E-04 14500   0.124E-01    0.157E-02
DAV:   7    -0.385189563616E+02    0.13025E-05   -0.36689E-05 11820   0.746E-02    0.739E-03
DAV:   8    -0.385189567414E+02   -0.37974E-06   -0.11575E-05 14744   0.231E-02    0.453E-03
DAV:   9    -0.385189568017E+02   -0.60328E-07   -0.21118E-06 13524   0.166E-02    0.178E-03
DAV:  10    -0.385189567988E+02    0.29172E-08   -0.31759E-07 12636   0.770E-03    0.738E-04
DAV:  11    -0.385189568040E+02   -0.52528E-08   -0.17437E-07 12932   0.326E-03    0.398E-04
DAV:  12    -0.385189568119E+02   -0.78126E-08   -0.38234E-08  9040   0.187E-03
   3 F= -.38518957E+02 E0= -.38518957E+02  d E =-.576930E-02
 curvature:  -0.28 expect dE=-0.338E-01 dE for cont linesearch -0.105E-06
 trial: gam= 5.99416 g(F)=  0.950E-01 g(S)=  0.238E-01 ort = 0.855E-04 (trialstep = 0.218E-01)
 search vector abs. value=  0.831E+00
 bond charge predicted
       N       E                     dE             d eps       ncg     rms          rms(c)
DAV:   1    -0.385243231615E+02   -0.53664E-02   -0.54940E-02 12496   0.246E+00    0.376E-01
DAV:   2    -0.385219863225E+02    0.23368E-02   -0.11516E-02 12928   0.141E+00    0.154E-01
DAV:   3    -0.385216078583E+02    0.37846E-03   -0.76097E-04 14804   0.322E-01    0.761E-02
DAV:   4    -0.385214747301E+02    0.13313E-03   -0.21332E-04 15572   0.207E-01    0.199E-02
DAV:   5    -0.385214707988E+02    0.39312E-05   -0.75701E-05 11552   0.101E-01    0.913E-03
DAV:   6    -0.385214702212E+02    0.57768E-06   -0.19423E-05 16048   0.403E-02    0.524E-03
DAV:   7    -0.385214700526E+02    0.16853E-06   -0.45244E-06 12304   0.235E-02    0.207E-03
DAV:   8    -0.385214702016E+02   -0.14901E-06   -0.11210E-06 11684   0.779E-03    0.161E-03
DAV:   9    -0.385214702530E+02   -0.51362E-07   -0.15622E-07 12376   0.586E-03    0.588E-04
DAV:  10    -0.385214702556E+02   -0.25757E-08   -0.47835E-08 10408   0.293E-03
   4 F= -.38521470E+02 E0= -.38521470E+02  d E =-.251344E-02
 ZBRENT: can't locate minimum, use default step
 trial-energy change:   -0.002513  1 .order   -0.002514   -0.002602   -0.002425
 step:   0.0872(harm=  0.3220)  dis= 0.00056  next Energy=   -38.538164 (dE=-0.192E-01)
 bond charge predicted
       N       E                     dE             d eps       ncg     rms          rms(c)
DAV:   1    -0.385534226238E+02   -0.31952E-01   -0.49238E-01 12496   0.739E+00    0.112E+00
DAV:   2    -0.385325353162E+02    0.20887E-01   -0.10237E-01 13032   0.418E+00    0.459E-01
DAV:   3    -0.385291557722E+02    0.33795E-02   -0.67107E-03 14684   0.948E-01    0.228E-01
DAV:   4    -0.385279709501E+02    0.11848E-02   -0.18791E-03 15528   0.605E-01    0.583E-02
DAV:   5    -0.385279412216E+02    0.29728E-04   -0.67170E-04 11484   0.302E-01    0.263E-02
DAV:   6    -0.385279374594E+02    0.37622E-05   -0.16022E-04 15956   0.118E-01    0.149E-02
DAV:   7    -0.385279361334E+02    0.13260E-05   -0.36828E-05 12572   0.690E-02    0.607E-03
DAV:   8    -0.385279372103E+02   -0.10769E-05   -0.91672E-06 11508   0.223E-02    0.466E-03
DAV:   9    -0.385279374399E+02   -0.22958E-06   -0.13296E-06 13408   0.165E-02    0.170E-03
DAV:  10    -0.385279374682E+02   -0.28296E-07   -0.44002E-07 14196   0.856E-03    0.887E-04
DAV:  11    -0.385279374797E+02   -0.11496E-07   -0.16592E-07 13304   0.386E-03    0.409E-04
DAV:  12    -0.385279374876E+02   -0.79676E-08   -0.57266E-08 11236   0.194E-03
   5 F= -.38527937E+02 E0= -.38527937E+02  d E =-.898068E-02
 curvature:  -0.44 expect dE=-0.273E-01 dE for cont linesearch -0.398E-02
 ZBRENT: increasing intervall
 opt :   0.2181  next Energy=   -38.536187 (dE=-0.172E-01)
 bond charge predicted
       N       E                     dE             d eps       ncg     rms          rms(c)
DAV:   1    -0.386365425070E+02   -0.10861E+00   -0.19490E+00 12480   0.148E+01    0.223E+00
DAV:   2    -0.385542270922E+02    0.82315E-01   -0.40027E-01 13152   0.823E+00    0.912E-01
DAV:   3    -0.385408926585E+02    0.13334E-01   -0.26348E-02 14252   0.185E+00    0.455E-01
DAV:   4    -0.385361895814E+02    0.47031E-02   -0.73020E-03 15040   0.118E+00    0.113E-01
DAV:   5    -0.385360901903E+02    0.99391E-04   -0.26794E-03 11456   0.606E-01    0.498E-02
DAV:   6    -0.385360793534E+02    0.10837E-04   -0.57261E-04 15532   0.226E-01    0.277E-02
DAV:   7    -0.385360755253E+02    0.38280E-05   -0.12613E-04 12948   0.133E-01    0.120E-02
DAV:   8    -0.385360793150E+02   -0.37896E-05   -0.31998E-05 11228   0.417E-02    0.880E-03
DAV:   9    -0.385360800162E+02   -0.70119E-06   -0.48504E-06 13176   0.294E-02    0.320E-03
DAV:  10    -0.385360801317E+02   -0.11553E-06   -0.16806E-06 13280   0.162E-02    0.181E-03
DAV:  11    -0.385360801667E+02   -0.34996E-07   -0.65810E-07 13892   0.704E-03    0.843E-04
DAV:  12    -0.385360801920E+02   -0.25293E-07   -0.22581E-07 13228   0.366E-03    0.507E-04
DAV:  13    -0.385360801912E+02    0.73578E-09   -0.45544E-08  8968   0.283E-03
   6 F= -.38536080E+02 E0= -.38536080E+02  d E =-.171234E-01
 curvature:  -0.90 expect dE=-0.189E-01 dE for cont linesearch -0.165E-02
 ZBRENT: increasing intervall
 opt :   0.4798  next Energy=   -38.533653 (dE=-0.147E-01)
 bond charge predicted
       N       E                     dE             d eps       ncg     rms          rms(c)
DAV:   1    -0.389239826422E+02   -0.38790E+00   -0.76333E+00 12384   0.294E+01    0.439E+00
DAV:   2    -0.386039530092E+02    0.32003E+00   -0.15248E+00 13176   0.163E+01    0.181E+00
DAV:   3    -0.385527549752E+02    0.51198E-01   -0.11123E-01 14180   0.360E+00    0.902E-01
DAV:   4    -0.385343091082E+02    0.18446E-01   -0.28198E-02 14620   0.227E+00    0.220E-01
DAV:   5    -0.385339676545E+02    0.34145E-03   -0.10573E-02 11412   0.120E+00    0.950E-02
DAV:   6    -0.385339367310E+02    0.30923E-04   -0.20024E-03 14688   0.433E-01    0.518E-02
DAV:   7    -0.385339254239E+02    0.11307E-04   -0.42525E-04 13292   0.260E-01    0.243E-02
DAV:   8    -0.385339395513E+02   -0.14127E-04   -0.11829E-04 10908   0.820E-02    0.167E-02
DAV:   9    -0.385339420390E+02   -0.24877E-05   -0.19162E-05 12420   0.516E-02    0.664E-03
DAV:  10    -0.385339426433E+02   -0.60438E-06   -0.76192E-06 12572   0.325E-02    0.402E-03
DAV:  11    -0.385339427400E+02   -0.96642E-07   -0.28134E-06 13048   0.129E-02    0.191E-03
DAV:  12    -0.385339428239E+02   -0.83918E-07   -0.97687E-07 12804   0.734E-03    0.947E-04
DAV:  13    -0.385339428360E+02   -0.12051E-07   -0.15626E-07 10608   0.498E-03    0.343E-04
DAV:  14    -0.385339428390E+02   -0.30464E-08   -0.43104E-08 11252   0.166E-03
   7 F= -.38533943E+02 E0= -.38533943E+02  d E =-.149860E-01
 curvature:   1.33 expect dE= 0.107E+00 dE for cont linesearch  0.488E-02
 ZBRENT: bracketing found
 ZBRENT: interpolating
 opt :   0.3263  next Energy=   -38.538187 (dE=-0.192E-01)
 bond charge predicted
       N       E                     dE             d eps       ncg     rms          rms(c)
DAV:   1    -0.386734371258E+02   -0.13949E+00   -0.25778E+00 12528   0.165E+01    0.260E+00
DAV:   2    -0.385617145402E+02    0.11172E+00   -0.55586E-01 12592   0.961E+00    0.105E+00
DAV:   3    -0.385444546580E+02    0.17260E-01   -0.40226E-02 14716   0.227E+00    0.524E-01
DAV:   4    -0.385383520924E+02    0.61026E-02   -0.10872E-02 15364   0.150E+00    0.149E-01
DAV:   5    -0.385381435883E+02    0.20850E-03   -0.38515E-03 11604   0.732E-01    0.677E-02
DAV:   6    -0.385381249907E+02    0.18598E-04   -0.11260E-03 15896   0.306E-01    0.404E-02
DAV:   7    -0.385381097261E+02    0.15265E-04   -0.24509E-04 12264   0.172E-01    0.152E-02
DAV:   8    -0.385381149187E+02   -0.51926E-05   -0.65120E-05 12200   0.590E-02    0.112E-02
DAV:   9    -0.385381153758E+02   -0.45704E-06   -0.81223E-06 12588   0.404E-02    0.455E-03
DAV:  10    -0.385381155942E+02   -0.21837E-06   -0.28584E-06 14416   0.202E-02    0.195E-03
DAV:  11    -0.385381156654E+02   -0.71281E-07   -0.89204E-07 13180   0.100E-02    0.934E-04
DAV:  12    -0.385381156800E+02   -0.14574E-07   -0.29921E-07 13028   0.438E-03    0.563E-04
DAV:  13    -0.385381157005E+02   -0.20475E-07   -0.56640E-08  9804   0.325E-03    0.180E-04
DAV:  14    -0.385381157026E+02   -0.20841E-08   -0.15844E-08  7580   0.177E-03
   8 F= -.38538116E+02 E0= -.38538116E+02  d E =-.191589E-01
 curvature:  -0.57 expect dE=-0.133E-01 dE for cont linesearch -0.965E-07
 trial: gam= 0.24265 g(F)=  0.116E-01 g(S)=  0.116E-01 ort =-0.374E-03 (trialstep = 0.827E-01)
 search vector abs. value=  0.719E-01
 bond charge predicted
       N       E                     dE             d eps       ncg     rms          rms(c)
DAV:   1    -0.385411354993E+02   -0.30198E-02   -0.57704E-02 10152   0.163E+00    0.257E-01
DAV:   2    -0.385403340656E+02    0.80143E-03   -0.46026E-03 10692   0.905E-01    0.136E-01
DAV:   3    -0.385400435233E+02    0.29054E-03   -0.62912E-04 14004   0.344E-01    0.584E-02
DAV:   4    -0.385399818798E+02    0.61644E-04   -0.15971E-04 12976   0.228E-01    0.154E-02
DAV:   5    -0.385399841425E+02   -0.22628E-05   -0.67369E-05 10532   0.881E-02    0.715E-03
DAV:   6    -0.385399843928E+02   -0.25025E-06   -0.89260E-06 12320   0.340E-02    0.409E-03
DAV:   7    -0.385399844779E+02   -0.85161E-07   -0.15151E-06 11924   0.221E-02    0.202E-03
DAV:   8    -0.385399845469E+02   -0.68978E-07   -0.57456E-07 14452   0.695E-03    0.918E-04
DAV:   9    -0.385399845661E+02   -0.19211E-07   -0.94557E-08 11404   0.353E-03    0.487E-04
DAV:  10    -0.385399845781E+02   -0.11936E-07   -0.31816E-08  8956   0.178E-03    0.165E-04
DAV:  11    -0.385399845777E+02    0.35061E-09   -0.60748E-09  5520   0.810E-04
   9 F= -.38539985E+02 E0= -.38539985E+02  d E =-.186888E-02
 ZBRENT: can't locate minimum, use default step
 trial-energy change:   -0.001869  1 .order   -0.001869   -0.001908   -0.001830
 step:   0.3308(harm=  2.0299)  dis= 0.00371  next Energy=   -38.561532 (dE=-0.234E-01)
 bond charge predicted
       N       E                     dE             d eps       ncg     rms          rms(c)
DAV:   1    -0.385554182426E+02   -0.15434E-01   -0.51777E-01 10148   0.489E+00    0.769E-01
DAV:   2    -0.385482638138E+02    0.71544E-02   -0.41274E-02 10688   0.270E+00    0.406E-01
DAV:   3    -0.385456657859E+02    0.25980E-02   -0.55713E-03 13976   0.102E+00    0.174E-01
DAV:   4    -0.385451194290E+02    0.54636E-03   -0.14245E-03 12872   0.664E-01    0.455E-02
DAV:   5    -0.385451421076E+02   -0.22679E-04   -0.60015E-04 10532   0.261E-01    0.213E-02
DAV:   6    -0.385451442191E+02   -0.21115E-05   -0.77531E-05 12328   0.104E-01    0.122E-02
DAV:   7    -0.385451448904E+02   -0.67133E-06   -0.13751E-05 11916   0.670E-02    0.605E-03
DAV:   8    -0.385451453933E+02   -0.50289E-06   -0.52271E-06 14676   0.214E-02    0.274E-03
DAV:   9    -0.385451455253E+02   -0.13200E-06   -0.90059E-07 12192   0.106E-02    0.151E-03
DAV:  10    -0.385451455871E+02   -0.61812E-07   -0.31280E-07 13628   0.501E-03    0.538E-04
DAV:  11    -0.385451455881E+02   -0.93996E-09   -0.55075E-08 10900   0.211E-03
  10 F= -.38545146E+02 E0= -.38545146E+02  d E =-.702989E-02
 curvature:  -0.76 expect dE=-0.157E-01 dE for cont linesearch -0.392E-02
 ZBRENT: increasing intervall
 opt :   0.8271  next Energy=   -38.553333 (dE=-0.152E-01)
 bond charge predicted
       N       E                     dE             d eps       ncg     rms          rms(c)
DAV:   1    -0.385936977722E+02   -0.48552E-01   -0.20553E+00 10132   0.977E+00    0.153E+00
DAV:   2    -0.385656852158E+02    0.28013E-01   -0.16337E-01 10684   0.533E+00    0.806E-01
DAV:   3    -0.385553884873E+02    0.10297E-01   -0.21687E-02 13952   0.200E+00    0.346E-01
DAV:   4    -0.385532483258E+02    0.21402E-02   -0.56735E-03 12692   0.128E+00    0.888E-02
DAV:   5    -0.385533421912E+02   -0.93865E-04   -0.23247E-03 10536   0.507E-01    0.420E-02
DAV:   6    -0.385533487207E+02   -0.65295E-05   -0.28989E-04 12252   0.215E-01    0.243E-02
DAV:   7    -0.385533515373E+02   -0.28166E-05   -0.55826E-05 11852   0.134E-01    0.121E-02
DAV:   8    -0.385533532843E+02   -0.17470E-05   -0.21012E-05 14852   0.449E-02    0.542E-03
DAV:   9    -0.385533537793E+02   -0.49501E-06   -0.38775E-06 12212   0.217E-02    0.317E-03
DAV:  10    -0.385533539687E+02   -0.18938E-06   -0.13415E-06 14052   0.961E-03    0.109E-03
DAV:  11    -0.385533539830E+02   -0.14337E-07   -0.24060E-07 11372   0.439E-03    0.623E-04
DAV:  12    -0.385533539948E+02   -0.11722E-07   -0.11364E-07 11776   0.335E-03    0.397E-04
DAV:  13    -0.385533539967E+02   -0.19372E-08   -0.37949E-08  9952   0.182E-03
  11 F= -.38553354E+02 E0= -.38553354E+02  d E =-.152383E-01
 curvature:  -1.58 expect dE=-0.558E-01 dE for cont linesearch -0.415E-02
 ZBRENT: increasing intervall
 opt :   1.8196  next Energy=   -38.561495 (dE=-0.234E-01)
 bond charge predicted
       N       E                     dE             d eps       ncg     rms          rms(c)
DAV:   1    -0.387171423690E+02   -0.16379E+00   -0.80992E+00 10096   0.195E+01    0.300E+00
DAV:   2    -0.386099472205E+02    0.10720E+00   -0.64203E-01 10652   0.104E+01    0.159E+00
DAV:   3    -0.385694500423E+02    0.40497E-01   -0.82095E-02 13596   0.385E+00    0.681E-01
DAV:   4    -0.385611993004E+02    0.82507E-02   -0.22941E-02 12344   0.238E+00    0.170E-01
DAV:   5    -0.385616018495E+02   -0.40255E-03   -0.89849E-03 10492   0.989E-01    0.825E-02
DAV:   6    -0.385616226950E+02   -0.20846E-04   -0.10683E-03 12176   0.451E-01    0.481E-02
DAV:   7    -0.385616346110E+02   -0.11916E-04   -0.22480E-04 13224   0.268E-01    0.245E-02
DAV:   8    -0.385616400348E+02   -0.54238E-05   -0.78663E-05 14352   0.911E-02    0.103E-02
DAV:   9    -0.385616422480E+02   -0.22132E-05   -0.16527E-05 11704   0.415E-02    0.630E-03
DAV:  10    -0.385616427754E+02   -0.52746E-06   -0.51483E-06 14340   0.192E-02    0.218E-03
DAV:  11    -0.385616428695E+02   -0.94115E-07   -0.10024E-06 11056   0.100E-02    0.132E-03
DAV:  12    -0.385616429093E+02   -0.39728E-07   -0.48088E-07 14024   0.736E-03    0.787E-04
DAV:  13    -0.385616429194E+02   -0.10110E-07   -0.14891E-07 13364   0.343E-03    0.412E-04
DAV:  14    -0.385616429164E+02    0.29431E-08   -0.44137E-08 10428   0.191E-03
  12 F= -.38561643E+02 E0= -.38561643E+02  d E =-.235272E-01
 curvature:  -3.09 expect dE=-0.403E+00 dE for cont linesearch -0.377E-03
 trial: gam= 5.47601 g(F)=  0.120E+00 g(S)=  0.108E-01 ort = 0.296E-02 (trialstep = 0.133E-01)
 search vector abs. value=  0.232E+01
 bond charge predicted
       N       E                     dE             d eps       ncg     rms          rms(c)
DAV:   1    -0.385642887412E+02   -0.26458E-02   -0.48903E-02 10044   0.149E+00    0.224E-01
DAV:   2    -0.385637475473E+02    0.54119E-03   -0.37342E-03 10940   0.811E-01    0.121E-01
DAV:   3    -0.385635227778E+02    0.22477E-03   -0.48603E-04 13860   0.298E-01    0.516E-02
DAV:   4    -0.385634752962E+02    0.47482E-04   -0.11995E-04 12376   0.202E-01    0.125E-02
DAV:   5    -0.385634779080E+02   -0.26118E-05   -0.53113E-05 10616   0.775E-02    0.611E-03
DAV:   6    -0.385634781785E+02   -0.27051E-06   -0.59480E-06 12408   0.289E-02    0.376E-03
DAV:   7    -0.385634782713E+02   -0.92721E-07   -0.11801E-06 12184   0.206E-02    0.188E-03
DAV:   8    -0.385634783103E+02   -0.39072E-07   -0.38156E-07 13896   0.796E-03    0.542E-04
DAV:   9    -0.385634783266E+02   -0.16280E-07   -0.10532E-07 10628   0.233E-03    0.418E-04
DAV:  10    -0.385634783325E+02   -0.59026E-08   -0.20941E-08  7604   0.141E-03
  13 F= -.38563478E+02 E0= -.38563478E+02  d E =-.183542E-02
 ZBRENT: can't locate minimum, use default step
 trial-energy change:   -0.001835  1 .order   -0.001836   -0.001954   -0.001718
 step:   0.0533(harm=  0.1105)  dis= 0.00327  next Energy=   -38.569735 (dE=-0.809E-02)
 bond charge predicted
       N       E                     dE             d eps       ncg     rms          rms(c)
DAV:   1    -0.385748228555E+02   -0.11345E-01   -0.43915E-01 10024   0.448E+00    0.670E-01
DAV:   2    -0.385699889852E+02    0.48339E-02   -0.33586E-02 10900   0.243E+00    0.362E-01
DAV:   3    -0.385679824197E+02    0.20066E-02   -0.43487E-03 13960   0.886E-01    0.154E-01
DAV:   4    -0.385675595321E+02    0.42289E-03   -0.10600E-03 12096   0.590E-01    0.371E-02
DAV:   5    -0.385675842306E+02   -0.24699E-04   -0.47471E-04 10584   0.230E-01    0.182E-02
DAV:   6    -0.385675863936E+02   -0.21630E-05   -0.51667E-05 12444   0.868E-02    0.112E-02
DAV:   7    -0.385675870056E+02   -0.61193E-06   -0.10683E-05 12652   0.615E-02    0.562E-03
DAV:   8    -0.385675872270E+02   -0.22150E-06   -0.34118E-06 13636   0.237E-02    0.164E-03
DAV:   9    -0.385675873611E+02   -0.13405E-06   -0.97006E-07 10964   0.685E-03    0.125E-03
DAV:  10    -0.385675873857E+02   -0.24655E-07   -0.20181E-07 12600   0.381E-03    0.454E-04
DAV:  11    -0.385675873891E+02   -0.33779E-08   -0.53675E-08  9840   0.242E-03
  14 F= -.38567587E+02 E0= -.38567587E+02  d E =-.594447E-02
 curvature:  -0.57 expect dE=-0.197E-01 dE for cont linesearch -0.145E-02
 ZBRENT: increasing intervall
 opt :   0.1334  next Energy=   -38.569544 (dE=-0.790E-02)
 bond charge predicted
       N       E                     dE             d eps       ncg     rms          rms(c)
DAV:   1    -0.385980453471E+02   -0.30458E-01   -0.17461E+00 10008   0.897E+00    0.133E+00
DAV:   2    -0.385791277577E+02    0.18918E-01   -0.13367E-01 10816   0.485E+00    0.720E-01
DAV:   3    -0.385711845130E+02    0.79432E-02   -0.17276E-02 13900   0.175E+00    0.307E-01
DAV:   4    -0.385695278754E+02    0.16566E-02   -0.42820E-03 12084   0.114E+00    0.727E-02
DAV:   5    -0.385696272930E+02   -0.99418E-04   -0.18462E-03 10572   0.445E-01    0.360E-02
DAV:   6    -0.385696344393E+02   -0.71463E-05   -0.19121E-04 12388   0.171E-01    0.224E-02
DAV:   7    -0.385696367098E+02   -0.22705E-05   -0.43765E-05 13252   0.122E-01    0.113E-02
DAV:   8    -0.385696372620E+02   -0.55218E-06   -0.13821E-05 13836   0.481E-02    0.327E-03
DAV:   9    -0.385696377849E+02   -0.52290E-06   -0.40195E-06 11240   0.132E-02    0.252E-03
DAV:  10    -0.385696378430E+02   -0.58152E-07   -0.76369E-07 12984   0.751E-03    0.866E-04
DAV:  11    -0.385696378700E+02   -0.26928E-07   -0.22154E-07 10744   0.475E-03    0.614E-04
DAV:  12    -0.385696378722E+02   -0.22546E-08   -0.64134E-08 11452   0.279E-03
  15 F= -.38569638E+02 E0= -.38569638E+02  d E =-.799496E-02
 curvature:  -0.77 expect dE=-0.498E-01 dE for cont linesearch -0.223E-03
 ZBRENT: bracketing found
 ZBRENT: interpolating
 opt :   0.1132  next Energy=   -38.569899 (dE=-0.826E-02)
 bond charge predicted
       N       E                     dE             d eps       ncg     rms          rms(c)
DAV:   1    -0.385716659258E+02   -0.20281E-02   -0.11026E-01 10012   0.223E+00    0.334E-01
DAV:   2    -0.385704767312E+02    0.11892E-02   -0.83854E-03 10756   0.122E+00    0.181E-01
DAV:   3    -0.385699809496E+02    0.49578E-03   -0.11264E-03 13388   0.457E-01    0.772E-02
DAV:   4    -0.385698796386E+02    0.10131E-03   -0.29125E-04 13728   0.320E-01    0.187E-02
DAV:   5    -0.385698858588E+02   -0.62202E-05   -0.11717E-04 10604   0.117E-01    0.929E-03
DAV:   6    -0.385698865057E+02   -0.64682E-06   -0.13775E-05 12208   0.438E-02    0.566E-03
DAV:   7    -0.385698865618E+02   -0.56164E-07   -0.27043E-06 13592   0.327E-02    0.286E-03
DAV:   8    -0.385698865718E+02   -0.99226E-08   -0.83573E-07 13120   0.116E-02    0.799E-04
DAV:   9    -0.385698866014E+02   -0.29610E-07   -0.25083E-07 11052   0.352E-03    0.634E-04
DAV:  10    -0.385698865981E+02    0.32387E-08   -0.54884E-08 10616   0.280E-03
  16 F= -.38569887E+02 E0= -.38569887E+02  d E =-.824368E-02
 curvature:  -0.91 expect dE=-0.349E-01 dE for cont linesearch -0.197E-07
 trial: gam= 0.44492 g(F)=  0.254E-01 g(S)=  0.131E-01 ort =-0.225E-03 (trialstep = 0.333E-01)
 search vector abs. value=  0.497E+00
 bond charge predicted
       N       E                     dE             d eps       ncg     rms          rms(c)
DAV:   1    -0.385719322513E+02   -0.20456E-02   -0.67352E-02  9872   0.155E+00    0.222E-01
DAV:   2    -0.385714635222E+02    0.46873E-03   -0.27501E-03 10936   0.665E-01    0.130E-01
DAV:   3    -0.385711540148E+02    0.30951E-03   -0.50262E-04 13868   0.358E-01    0.373E-02
DAV:   4    -0.385711412552E+02    0.12760E-04   -0.15843E-04 10672   0.209E-01    0.966E-03
DAV:   5    -0.385711447554E+02   -0.35002E-05   -0.47205E-05 11312   0.567E-02    0.675E-03
DAV:   6    -0.385711446265E+02    0.12890E-06   -0.31561E-06 11900   0.219E-02    0.421E-03
DAV:   7    -0.385711447880E+02   -0.16151E-06   -0.16126E-06 14416   0.148E-02    0.223E-03
DAV:   8    -0.385711447680E+02    0.20023E-07   -0.43427E-07 13204   0.860E-03    0.814E-04
DAV:   9    -0.385711447829E+02   -0.14957E-07   -0.25021E-07 13188   0.304E-03    0.612E-04
DAV:  10    -0.385711447791E+02    0.38517E-08   -0.34802E-08  9844   0.169E-03
  17 F= -.38571145E+02 E0= -.38571145E+02  d E =-.125818E-02
 ZBRENT: can't locate minimum, use default step
 trial-energy change:   -0.001258  1 .order   -0.001257   -0.001279   -0.001235
 step:   0.1332(harm=  0.9746)  dis= 0.00530  next Energy=   -38.588598 (dE=-0.187E-01)
 bond charge predicted
       N       E                     dE             d eps       ncg     rms          rms(c)
DAV:   1    -0.385817220967E+02   -0.10577E-01   -0.60497E-01  9868   0.465E+00    0.664E-01
DAV:   2    -0.385775297173E+02    0.41924E-02   -0.24813E-02 10936   0.198E+00    0.389E-01
DAV:   3    -0.385747542846E+02    0.27754E-02   -0.44582E-03 14176   0.105E+00    0.111E-01
DAV:   4    -0.385746422171E+02    0.11207E-03   -0.14218E-03 10664   0.605E-01    0.290E-02
DAV:   5    -0.385746721833E+02   -0.29966E-04   -0.41067E-04 11356   0.171E-01    0.202E-02
DAV:   6    -0.385746713467E+02    0.83666E-06   -0.30845E-05 11840   0.705E-02    0.126E-02
DAV:   7    -0.385746726773E+02   -0.13306E-05   -0.15589E-05 14372   0.512E-02    0.695E-03
DAV:   8    -0.385746723635E+02    0.31376E-06   -0.39408E-06 13260   0.276E-02    0.257E-03
DAV:   9    -0.385746724555E+02   -0.91997E-07   -0.22037E-06 13252   0.106E-02    0.173E-03
DAV:  10    -0.385746724433E+02    0.12192E-07   -0.34122E-07 13172   0.609E-03    0.630E-04
DAV:  11    -0.385746724488E+02   -0.54579E-08   -0.14535E-07 13076   0.398E-03    0.376E-04
DAV:  12    -0.385746724479E+02    0.89130E-09   -0.17706E-08  6936   0.204E-03
  18 F= -.38574672E+02 E0= -.38574672E+02  d E =-.478585E-02
 curvature:  -1.27 expect dE=-0.469E-01 dE for cont linesearch -0.283E-02
 ZBRENT: increasing intervall
 opt :   0.3330  next Energy=   -38.580564 (dE=-0.107E-01)
 bond charge predicted
       N       E                     dE             d eps       ncg     rms          rms(c)
DAV:   1    -0.386084225204E+02   -0.33750E-01   -0.24086E+00  9868   0.929E+00    0.132E+00
DAV:   2    -0.385919315564E+02    0.16491E-01   -0.98948E-02 10844   0.390E+00    0.775E-01
DAV:   3    -0.385809012575E+02    0.11030E-01   -0.17644E-02 14296   0.207E+00    0.220E-01
DAV:   4    -0.385804783460E+02    0.42291E-03   -0.57392E-03 10652   0.117E+00    0.578E-02
DAV:   5    -0.385805960036E+02   -0.11766E-03   -0.16144E-03 11460   0.343E-01    0.403E-02
DAV:   6    -0.385805921124E+02    0.38912E-05   -0.12883E-04 11736   0.159E-01    0.253E-02
DAV:   7    -0.385805977818E+02   -0.56694E-05   -0.68070E-05 14524   0.961E-02    0.145E-02
DAV:   8    -0.385805961230E+02    0.16588E-05   -0.16276E-05 13128   0.581E-02    0.549E-03
DAV:   9    -0.385805964316E+02   -0.30857E-06   -0.93753E-06 13684   0.219E-02    0.339E-03
DAV:  10    -0.385805964244E+02    0.71841E-08   -0.13876E-06 13116   0.151E-02    0.160E-03
DAV:  11    -0.385805964462E+02   -0.21854E-07   -0.64978E-07 14244   0.872E-03    0.706E-04
DAV:  12    -0.385805964493E+02   -0.30341E-08   -0.10345E-07 13088   0.373E-03    0.289E-04
DAV:  13    -0.385805964539E+02   -0.46211E-08   -0.27743E-08  8556   0.180E-03
  19 F= -.38580596E+02 E0= -.38580596E+02  d E =-.107099E-01
 curvature:  -2.65 expect dE=-0.948E-01 dE for cont linesearch -0.351E-02
 ZBRENT: increasing intervall
 opt :   0.7327  next Energy=   -38.587832 (dE=-0.179E-01)
 bond charge predicted
       N       E                     dE             d eps       ncg     rms          rms(c)
DAV:   1    -0.386963870328E+02   -0.11579E+00   -0.95488E+00  9868   0.186E+01    0.262E+00
DAV:   2    -0.386328231714E+02    0.63564E-01   -0.39609E-01 10748   0.758E+00    0.154E+00
DAV:   3    -0.385892251900E+02    0.43598E-01   -0.68166E-02 14032   0.404E+00    0.438E-01
DAV:   4    -0.385876260403E+02    0.15991E-02   -0.23608E-02 10624   0.226E+00    0.116E-01
DAV:   5    -0.385880945917E+02   -0.46855E-03   -0.64655E-03 11600   0.689E-01    0.807E-02
DAV:   6    -0.385880743343E+02    0.20257E-04   -0.54957E-04 11736   0.359E-01    0.510E-02
DAV:   7    -0.385880982807E+02   -0.23946E-04   -0.29475E-04 13832   0.160E-01    0.302E-02
DAV:   8    -0.385880905751E+02    0.77056E-05   -0.66553E-05 12920   0.117E-01    0.119E-02
DAV:   9    -0.385880914136E+02   -0.83850E-06   -0.40875E-05 13132   0.486E-02    0.670E-03
DAV:  10    -0.385880915131E+02   -0.99580E-07   -0.52808E-06 12356   0.270E-02    0.426E-03
DAV:  11    -0.385880915766E+02   -0.63462E-07   -0.30238E-06 14324   0.144E-02    0.143E-03
DAV:  12    -0.385880916099E+02   -0.33336E-07   -0.48079E-07 12396   0.924E-03    0.558E-04
DAV:  13    -0.385880916267E+02   -0.16720E-07   -0.13288E-07 11320   0.397E-03    0.500E-04
DAV:  14    -0.385880916351E+02   -0.84010E-08   -0.32071E-08  9716   0.191E-03
  20 F= -.38588092E+02 E0= -.38588092E+02  d E =-.182050E-01
 curvature:  -5.45 expect dE=-0.207E+00 dE for cont linesearch -0.125E-02
 ZBRENT: increasing intervall
 opt :   1.5320  next Energy=   -38.584642 (dE=-0.148E-01)
 bond charge predicted
       N       E                     dE             d eps       ncg     rms          rms(c)
DAV:   1    -0.389946951729E+02   -0.40660E+00   -0.37585E+01  9864   0.371E+01    0.514E+00
DAV:   2    -0.387606767338E+02    0.23402E+00   -0.16232E+00 10764   0.147E+01    0.303E+00
DAV:   3    -0.385911316845E+02    0.16955E+00   -0.26231E-01 13388   0.788E+00    0.891E-01
DAV:   4    -0.385836157319E+02    0.75160E-02   -0.90686E-02 10584   0.423E+00    0.239E-01
DAV:   5    -0.385853401861E+02   -0.17245E-02   -0.26890E-02 11884   0.141E+00    0.161E-01
DAV:   6    -0.385852706883E+02    0.69498E-04   -0.25139E-03 11684   0.710E-01    0.103E-01
DAV:   7    -0.385853606251E+02   -0.89937E-04   -0.12400E-03 12548   0.268E-01    0.618E-02
DAV:   8    -0.385853313104E+02    0.29315E-04   -0.26237E-04 12476   0.227E-01    0.248E-02
DAV:   9    -0.385853338732E+02   -0.25628E-05   -0.17522E-04 12592   0.105E-01    0.138E-02
DAV:  10    -0.385853344134E+02   -0.54018E-06   -0.23327E-05 11396   0.443E-02    0.104E-02
DAV:  11    -0.385853344816E+02   -0.68229E-07   -0.12873E-05 14948   0.268E-02    0.328E-03
DAV:  12    -0.385853348051E+02   -0.32354E-06   -0.26437E-06 12068   0.205E-02    0.186E-03
DAV:  13    -0.385853348604E+02   -0.55284E-07   -0.65101E-07 14272   0.832E-03    0.127E-03
DAV:  14    -0.385853348736E+02   -0.13189E-07   -0.24301E-07 14036   0.401E-03    0.426E-04
DAV:  15    -0.385853348825E+02   -0.89194E-08   -0.45525E-08  9548   0.277E-03
  21 F= -.38585335E+02 E0= -.38585335E+02  d E =-.154483E-01
 curvature:  15.02 expect dE= 0.871E+00 dE for cont linesearch  0.116E-01
 ZBRENT: bracketing found
 ZBRENT: interpolating
 opt :   1.0148  next Energy=   -38.589599 (dE=-0.197E-01)
 bond charge predicted
       N       E                     dE             d eps       ncg     rms          rms(c)
DAV:   1    -0.387574455458E+02   -0.17211E+00   -0.15584E+01  9860   0.232E+01    0.326E+00
DAV:   2    -0.386604923830E+02    0.96953E-01   -0.54316E-01 10800   0.847E+00    0.195E+00
DAV:   3    -0.385890629437E+02    0.71429E-01   -0.11633E-01 12348   0.612E+00    0.472E-01
DAV:   4    -0.385890156674E+02    0.47276E-04   -0.43149E-02 10584   0.352E+00    0.162E-01
DAV:   5    -0.385897565274E+02   -0.74086E-03   -0.12379E-02 12072   0.886E-01    0.102E-01
DAV:   6    -0.385897146428E+02    0.41885E-04   -0.85670E-04 12452   0.369E-01    0.682E-02
DAV:   7    -0.385897429349E+02   -0.28292E-04   -0.59278E-04 15676   0.265E-01    0.322E-02
DAV:   8    -0.385897319708E+02    0.10964E-04   -0.12959E-04 13140   0.161E-01    0.167E-02
DAV:   9    -0.385897346491E+02   -0.26783E-05   -0.83199E-05 13484   0.935E-02    0.925E-03
DAV:  10    -0.385897339458E+02    0.70331E-06   -0.12384E-05 13392   0.281E-02    0.461E-03
DAV:  11    -0.385897343793E+02   -0.43347E-06   -0.30827E-06 10716   0.179E-02    0.105E-03
DAV:  12    -0.385897344680E+02   -0.88711E-07   -0.37252E-07 15180   0.739E-03    0.599E-04
DAV:  13    -0.385897344968E+02   -0.28830E-07   -0.80548E-08 10728   0.281E-03    0.374E-04
DAV:  14    -0.385897345036E+02   -0.67375E-08   -0.19198E-08  7288   0.213E-03
  22 F= -.38589735E+02 E0= -.38589735E+02  d E =-.198479E-01
 curvature:  -1.95 expect dE=-0.841E-01 dE for cont linesearch -0.405E-07
 trial: gam= 0.24327 g(F)=  0.347E-01 g(S)=  0.828E-02 ort =-0.102E-03 (trialstep = 0.230E+00)
 search vector abs. value=  0.724E-01
 bond charge predicted
       N       E                     dE             d eps       ncg     rms          rms(c)
DAV:   1    -0.385968510226E+02   -0.71165E-02   -0.69129E-01  9884   0.489E+00    0.435E-01
DAV:   2    -0.385964573528E+02    0.39367E-03   -0.26115E-02 10940   0.157E+00    0.266E-01
DAV:   3    -0.385954405739E+02    0.10168E-02   -0.29963E-03 12828   0.560E-01    0.107E-01
DAV:   4    -0.385953117837E+02    0.12879E-03   -0.71264E-04 10500   0.275E-01    0.287E-02
DAV:   5    -0.385953175045E+02   -0.57208E-05   -0.18547E-04 11936   0.157E-01    0.136E-02
DAV:   6    -0.385953181797E+02   -0.67520E-06   -0.32644E-05 11340   0.849E-02    0.716E-03
DAV:   7    -0.385953184531E+02   -0.27336E-06   -0.62551E-06 12200   0.415E-02    0.368E-03
DAV:   8    -0.385953184478E+02    0.52605E-08   -0.16805E-06 13020   0.188E-02    0.201E-03
DAV:   9    -0.385953184963E+02   -0.48518E-07   -0.48483E-07 13092   0.104E-02    0.989E-04
DAV:  10    -0.385953184898E+02    0.64902E-08   -0.12519E-07 13168   0.305E-03    0.275E-04
DAV:  11    -0.385953184886E+02    0.12697E-08   -0.30562E-08  9560   0.190E-03
  23 F= -.38595318E+02 E0= -.38595318E+02  d E =-.558399E-02
 trial-energy change:   -0.005584  1 .order   -0.005540   -0.009872   -0.001209
 step:   0.2606(harm=  0.2616)  dis= 0.00477  next Energy=   -38.595400 (dE=-0.567E-02)
 bond charge predicted
       N       E                     dE             d eps       ncg     rms          rms(c)
DAV:   1    -0.385954284465E+02   -0.10996E-03   -0.12594E-02  9888   0.660E-01    0.588E-02
DAV:   2    -0.385954206381E+02    0.78085E-05   -0.47535E-04 11052   0.214E-01    0.359E-02
DAV:   3    -0.385954028334E+02    0.17805E-04   -0.55279E-05 12676   0.752E-02    0.146E-02
DAV:   4    -0.385954004331E+02    0.24003E-05   -0.12864E-05 10500   0.374E-02    0.397E-03
DAV:   5    -0.385954005250E+02   -0.91982E-07   -0.34243E-06 11996   0.210E-02    0.183E-03
DAV:   6    -0.385954005344E+02   -0.93969E-08   -0.60492E-07 11340   0.115E-02    0.983E-04
DAV:   7    -0.385954005301E+02    0.43246E-08   -0.11667E-07 12128   0.560E-03    0.508E-04
DAV:   8    -0.385954005224E+02    0.76807E-08   -0.24567E-08  6556   0.264E-03
  24 F= -.38595401E+02 E0= -.38595401E+02  d E =-.566602E-02
 curvature:  -0.22 expect dE=-0.232E-01 dE for cont linesearch -0.949E-09
 trial: gam= 2.45723 g(F)=  0.942E-01 g(S)=  0.113E-01 ort = 0.177E-04 (trialstep = 0.315E-01)
 search vector abs. value=  0.543E+00
 bond charge predicted
       N       E                     dE             d eps       ncg     rms          rms(c)
DAV:   1    -0.385987969574E+02   -0.33964E-02   -0.96731E-02  9944   0.176E+00    0.149E-01
DAV:   2    -0.385987423242E+02    0.54633E-04   -0.28214E-03 10776   0.472E-01    0.877E-02
DAV:   3    -0.385986064368E+02    0.13589E-03   -0.28402E-04 15532   0.182E-01    0.253E-02
DAV:   4    -0.385986008602E+02    0.55765E-05   -0.80209E-05 10668   0.955E-02    0.704E-03
DAV:   5    -0.385986022923E+02   -0.14320E-05   -0.19434E-05 11188   0.451E-02    0.463E-03
DAV:   6    -0.385986022449E+02    0.47415E-07   -0.18316E-06 12616   0.192E-02    0.259E-03
DAV:   7    -0.385986022863E+02   -0.41432E-07   -0.55607E-07 11432   0.548E-03    0.103E-03
DAV:   8    -0.385986022700E+02    0.16350E-07   -0.18359E-07 14348   0.378E-03    0.430E-04
DAV:   9    -0.385986022738E+02   -0.38517E-08   -0.33473E-08  9600   0.225E-03
  25 F= -.38598602E+02 E0= -.38598602E+02  d E =-.320175E-02
 ZBRENT: can't locate minimum, use default step
 trial-energy change:   -0.003202  1 .order   -0.003200   -0.003320   -0.003080
 step:   0.1258(harm=  0.4365)  dis= 0.00656  next Energy=   -38.618435 (dE=-0.230E-01)
 bond charge predicted
       N       E                     dE             d eps       ncg     rms          rms(c)
DAV:   1    -0.386085395037E+02   -0.99372E-02   -0.87017E-01  9944   0.526E+00    0.448E-01
DAV:   2    -0.386080468414E+02    0.49266E-03   -0.25278E-02 10760   0.141E+00    0.263E-01
DAV:   3    -0.386068081890E+02    0.12387E-02   -0.25258E-03 15500   0.543E-01    0.746E-02
DAV:   4    -0.386067617403E+02    0.46449E-04   -0.71260E-04 10616   0.276E-01    0.211E-02
DAV:   5    -0.386067733658E+02   -0.11626E-04   -0.16928E-04 11252   0.138E-01    0.138E-02
DAV:   6    -0.386067730163E+02    0.34952E-06   -0.16319E-05 12540   0.568E-02    0.760E-03
DAV:   7    -0.386067733285E+02   -0.31218E-06   -0.46547E-06 11372   0.169E-02    0.293E-03
DAV:   8    -0.386067733086E+02    0.19890E-07   -0.15778E-06 14292   0.107E-02    0.136E-03
DAV:   9    -0.386067733351E+02   -0.26490E-07   -0.26555E-07 11124   0.707E-03    0.105E-03
DAV:  10    -0.386067733438E+02   -0.87421E-08   -0.15369E-07 13632   0.326E-03    0.278E-04
DAV:  11    -0.386067733453E+02   -0.14352E-08   -0.16838E-08  6996   0.131E-03
  26 F= -.38606773E+02 E0= -.38606773E+02  d E =-.113728E-01
 curvature:  -0.46 expect dE=-0.248E-01 dE for cont linesearch -0.481E-02
 ZBRENT: increasing intervall
 opt :   0.3146  next Energy=   -38.616669 (dE=-0.213E-01)
 bond charge predicted
       N       E                     dE             d eps       ncg     rms          rms(c)
DAV:   1    -0.386238671109E+02   -0.17094E-01   -0.34796E+00  9944   0.105E+01    0.897E-01
DAV:   2    -0.386218660151E+02    0.20011E-02   -0.10077E-01 10728   0.278E+00    0.527E-01
DAV:   3    -0.386168597869E+02    0.50062E-02   -0.10017E-02 15248   0.111E+00    0.147E-01
DAV:   4    -0.386166921934E+02    0.16759E-03   -0.28426E-03 10540   0.535E-01    0.418E-02
DAV:   5    -0.386167360292E+02   -0.43836E-04   -0.65618E-04 11256   0.285E-01    0.277E-02
DAV:   6    -0.386167348414E+02    0.11878E-05   -0.64622E-05 12616   0.120E-01    0.148E-02
DAV:   7    -0.386167359484E+02   -0.11069E-05   -0.17713E-05 11344   0.443E-02    0.582E-03
DAV:   8    -0.386167361618E+02   -0.21347E-06   -0.59286E-06 13736   0.238E-02    0.278E-03
DAV:   9    -0.386167362533E+02   -0.91438E-07   -0.10142E-06 11492   0.179E-02    0.198E-03
DAV:  10    -0.386167362801E+02   -0.26836E-07   -0.56352E-07 14292   0.569E-03    0.532E-04
DAV:  11    -0.386167362907E+02   -0.10637E-07   -0.71289E-08 10480   0.235E-03    0.310E-04
DAV:  12    -0.386167363011E+02   -0.10375E-07   -0.25509E-08  8512   0.198E-03    0.184E-04
DAV:  13    -0.386167363032E+02   -0.20800E-08   -0.50608E-09  5540   0.824E-04
  27 F= -.38616736E+02 E0= -.38616736E+02  d E =-.213358E-01
 curvature:  -0.95 expect dE=-0.152E-01 dE for cont linesearch -0.161E-02
 ZBRENT: increasing intervall
 opt :   0.6921  next Energy=   -38.611215 (dE=-0.158E-01)
 bond charge predicted
       N       E                     dE             d eps       ncg     rms          rms(c)
DAV:   1    -0.386401315690E+02   -0.23395E-01   -0.13917E+01  9936   0.210E+01    0.180E+00
DAV:   2    -0.386325379671E+02    0.75936E-02   -0.40751E-01 10756   0.546E+00    0.106E+00
DAV:   3    -0.386118816173E+02    0.20656E-01   -0.36694E-02 12980   0.244E+00    0.299E-01
DAV:   4    -0.386114743573E+02    0.40726E-03   -0.14471E-02 10860   0.118E+00    0.824E-02
DAV:   5    -0.386116570973E+02   -0.18274E-03   -0.28364E-03 11292   0.725E-01    0.571E-02
DAV:   6    -0.386116630156E+02   -0.59183E-05   -0.41682E-04 12540   0.343E-01    0.292E-02
DAV:   7    -0.386116678836E+02   -0.48681E-05   -0.89500E-05 11412   0.122E-01    0.125E-02
DAV:   8    -0.386116698774E+02   -0.19938E-05   -0.27628E-05 12872   0.504E-02    0.583E-03
DAV:   9    -0.386116703367E+02   -0.45923E-06   -0.53961E-06 10708   0.195E-02    0.380E-03
DAV:  10    -0.386116705559E+02   -0.21922E-06   -0.21762E-06 12448   0.128E-02    0.141E-03
DAV:  11    -0.386116706228E+02   -0.66905E-07   -0.29840E-07 10648   0.567E-03    0.102E-03
DAV:  12    -0.386116706457E+02   -0.22929E-07   -0.18007E-07 13408   0.252E-03    0.443E-04
DAV:  13    -0.386116706493E+02   -0.35452E-08   -0.28557E-08  8900   0.135E-03
  28 F= -.38611671E+02 E0= -.38611671E+02  d E =-.162701E-01
 curvature:   3.27 expect dE= 0.240E+00 dE for cont linesearch  0.198E-01
 ZBRENT: bracketing found
 ZBRENT: interpolating
 opt :   0.4449  next Energy=   -38.618710 (dE=-0.233E-01)
 bond charge predicted
       N       E                     dE             d eps       ncg     rms          rms(c)
DAV:   1    -0.386317841039E+02   -0.20113E-01   -0.60069E+00  9948   0.139E+01    0.119E+00
DAV:   2    -0.386276026679E+02    0.41814E-02   -0.18057E-01 10876   0.391E+00    0.700E-01
DAV:   3    -0.386193247822E+02    0.82779E-02   -0.18859E-02 14888   0.156E+00    0.235E-01
DAV:   4    -0.386186369711E+02    0.68781E-03   -0.53221E-03 10896   0.817E-01    0.578E-02
DAV:   5    -0.386187331468E+02   -0.96176E-04   -0.13981E-03 11484   0.334E-01    0.386E-02
DAV:   6    -0.386187286635E+02    0.44832E-05   -0.13692E-04 11904   0.176E-01    0.234E-02
DAV:   7    -0.386187311096E+02   -0.24461E-05   -0.52820E-05 14788   0.102E-01    0.127E-02
DAV:   8    -0.386187301253E+02    0.98433E-06   -0.17354E-05 14012   0.534E-02    0.488E-03
DAV:   9    -0.386187305757E+02   -0.45036E-06   -0.74994E-06 13220   0.196E-02    0.396E-03
DAV:  10    -0.386187304830E+02    0.92640E-07   -0.14096E-06 13544   0.991E-03    0.117E-03
DAV:  11    -0.386187305270E+02   -0.43928E-07   -0.41566E-07 11900   0.474E-03    0.592E-04
DAV:  12    -0.386187305347E+02   -0.77280E-08   -0.51506E-08 11976   0.157E-03
  29 F= -.38618731E+02 E0= -.38618731E+02  d E =-.233300E-01
 curvature:  -0.33 expect dE=-0.537E-02 dE for cont linesearch -0.434E-07
 trial: gam= 0.19101 g(F)=  0.104E-01 g(S)=  0.610E-02 ort =-0.269E-03 (trialstep = 0.114E+00)
 search vector abs. value=  0.362E-01
 bond charge predicted
       N       E                     dE             d eps       ncg     rms          rms(c)
DAV:   1    -0.386213984356E+02   -0.26679E-02   -0.91379E-02 10344   0.209E+00    0.248E-01
DAV:   2    -0.386207301525E+02    0.66828E-03   -0.77902E-03 10872   0.109E+00    0.107E-01
DAV:   3    -0.386205975037E+02    0.13265E-03   -0.60414E-04 12856   0.276E-01    0.528E-02
DAV:   4    -0.386205391461E+02    0.58358E-04   -0.11505E-04 13196   0.139E-01    0.156E-02
DAV:   5    -0.386205379421E+02    0.12040E-05   -0.41662E-05 10480   0.700E-02    0.594E-03
DAV:   6    -0.386205380444E+02   -0.10229E-06   -0.80796E-06 13960   0.253E-02    0.352E-03
DAV:   7    -0.386205379700E+02    0.74363E-07   -0.12061E-06 12724   0.161E-02    0.173E-03
DAV:   8    -0.386205379474E+02    0.22612E-07   -0.47064E-07 14052   0.542E-03    0.103E-03
DAV:   9    -0.386205379263E+02    0.21037E-07   -0.10670E-07 12964   0.365E-03    0.381E-04
DAV:  10    -0.386205379128E+02    0.13592E-07   -0.13442E-08  6576   0.165E-03    0.164E-04
DAV:  11    -0.386205379120E+02    0.72941E-09   -0.56756E-09  5392   0.636E-04
  30 F= -.38620538E+02 E0= -.38620538E+02  d E =-.180738E-02
 ZBRENT: can't locate minimum, use default step
 trial-energy change:   -0.001807  1 .order   -0.001812   -0.001879   -0.001745
 step:   0.4566(harm=  1.5999)  dis= 0.00668  next Energy=   -38.631899 (dE=-0.132E-01)
 bond charge predicted
       N       E                     dE             d eps       ncg     rms          rms(c)
DAV:   1    -0.386330011177E+02   -0.12463E-01   -0.82089E-01 10292   0.624E+00    0.745E-01
DAV:   2    -0.386269283256E+02    0.60728E-02   -0.70565E-02 10884   0.329E+00    0.320E-01
DAV:   3    -0.386257192241E+02    0.12091E-02   -0.55134E-03 12796   0.840E-01    0.159E-01
DAV:   4    -0.386251858964E+02    0.53333E-03   -0.10575E-03 12980   0.424E-01    0.472E-02
DAV:   5    -0.386251720847E+02    0.13812E-04   -0.38210E-04 10484   0.217E-01    0.180E-02
DAV:   6    -0.386251729349E+02   -0.85024E-06   -0.73636E-05 13712   0.778E-02    0.106E-02
DAV:   7    -0.386251725732E+02    0.36176E-06   -0.11472E-05 13076   0.504E-02    0.521E-03
DAV:   8    -0.386251726703E+02   -0.97160E-07   -0.43343E-06 13972   0.180E-02    0.313E-03
DAV:   9    -0.386251726193E+02    0.51022E-07   -0.95108E-07 13776   0.114E-02    0.116E-03
DAV:  10    -0.386251725996E+02    0.19707E-07   -0.14266E-07 10756   0.499E-03    0.545E-04
DAV:  11    -0.386251725980E+02    0.15925E-08   -0.57230E-08 10724   0.170E-03
  31 F= -.38625173E+02 E0= -.38625173E+02  d E =-.644206E-02
 curvature:  -0.72 expect dE=-0.862E-02 dE for cont linesearch -0.273E-02
 ZBRENT: increasing intervall
 opt :   1.1415  next Energy=   -38.630790 (dE=-0.121E-01)
 bond charge predicted
       N       E                     dE             d eps       ncg     rms          rms(c)
DAV:   1    -0.386626552333E+02   -0.37483E-01   -0.32779E+00 10296   0.124E+01    0.150E+00
DAV:   2    -0.386378337827E+02    0.24821E-01   -0.28485E-01 10924   0.659E+00    0.643E-01
DAV:   3    -0.386329508124E+02    0.48830E-02   -0.22558E-02 12772   0.174E+00    0.319E-01
DAV:   4    -0.386308070549E+02    0.21438E-02   -0.44273E-03 13048   0.887E-01    0.959E-02
DAV:   5    -0.386307465310E+02    0.60524E-04   -0.15525E-03 10504   0.461E-01    0.365E-02
DAV:   6    -0.386307500740E+02   -0.35430E-05   -0.30417E-04 13216   0.166E-01    0.212E-02
DAV:   7    -0.386307494000E+02    0.67406E-06   -0.48543E-05 12868   0.104E-01    0.105E-02
DAV:   8    -0.386307500766E+02   -0.67660E-06   -0.17959E-05 13936   0.395E-02    0.640E-03
DAV:   9    -0.386307500233E+02    0.53231E-07   -0.38212E-06 13460   0.247E-02    0.234E-03
DAV:  10    -0.386307500494E+02   -0.26041E-07   -0.62677E-07 11036   0.101E-02    0.106E-03
DAV:  11    -0.386307500519E+02   -0.25493E-08   -0.23584E-07 13664   0.347E-03    0.439E-04
DAV:  12    -0.386307500535E+02   -0.16071E-08   -0.44047E-08 10124   0.151E-03
  32 F= -.38630750E+02 E0= -.38630750E+02  d E =-.120195E-01
 curvature:  -1.47 expect dE=-0.333E-01 dE for cont linesearch -0.831E-03
 ZBRENT: increasing intervall
 opt :   2.5113  next Energy=   -38.627035 (dE=-0.830E-02)
 bond charge predicted
       N       E                     dE             d eps       ncg     rms          rms(c)
DAV:   1    -0.387586101433E+02   -0.12786E+00   -0.13076E+01 10300   0.245E+01    0.303E+00
DAV:   2    -0.386553308382E+02    0.10328E+00   -0.11635E+00 10984   0.132E+01    0.129E+00
DAV:   3    -0.386353928879E+02    0.19938E-01   -0.93891E-02 12816   0.370E+00    0.647E-01
DAV:   4    -0.386267853546E+02    0.86075E-02   -0.19683E-02 13508   0.199E+00    0.198E-01
DAV:   5    -0.386264795634E+02    0.30579E-03   -0.61505E-03 10520   0.103E+00    0.751E-02
DAV:   6    -0.386265052790E+02   -0.25716E-04   -0.14563E-03 13092   0.435E-01    0.428E-02
DAV:   7    -0.386265050505E+02    0.22850E-06   -0.21786E-04 12652   0.239E-01    0.216E-02
DAV:   8    -0.386265087442E+02   -0.36937E-05   -0.85040E-05 14216   0.852E-02    0.137E-02
DAV:   9    -0.386265087143E+02    0.29843E-07   -0.19372E-05 13620   0.546E-02    0.485E-03
DAV:  10    -0.386265089785E+02   -0.26415E-06   -0.28255E-06 12728   0.252E-02    0.221E-03
DAV:  11    -0.386265090033E+02   -0.24783E-07   -0.12269E-06 14748   0.847E-03    0.960E-04
DAV:  12    -0.386265090241E+02   -0.20864E-07   -0.20295E-07 11336   0.576E-03    0.832E-04
DAV:  13    -0.386265090249E+02   -0.72669E-09   -0.74612E-08 12244   0.272E-03
  33 F= -.38626509E+02 E0= -.38626509E+02  d E =-.777849E-02
 curvature:   6.60 expect dE= 0.720E+00 dE for cont linesearch  0.214E-01
 ZBRENT: bracketing found
 ZBRENT: interpolating
 opt :   1.5443  next Energy=   -38.631660 (dE=-0.129E-01)
 bond charge predicted
       N       E                     dE             d eps       ncg     rms          rms(c)
DAV:   1    -0.386943752244E+02   -0.67866E-01   -0.67073E+00 10348   0.185E+01    0.214E+00
DAV:   2    -0.386461518803E+02    0.48223E-01   -0.57847E-01 10796   0.966E+00    0.925E-01
DAV:   3    -0.386363295442E+02    0.98223E-02   -0.46812E-02 12420   0.234E+00    0.456E-01
DAV:   4    -0.386318679043E+02    0.44616E-02   -0.88440E-03 13836   0.123E+00    0.140E-01
DAV:   5    -0.386316866270E+02    0.18128E-03   -0.28921E-03 10544   0.578E-01    0.493E-02
DAV:   6    -0.386316935799E+02   -0.69529E-05   -0.58291E-04 12776   0.236E-01    0.295E-02
DAV:   7    -0.386316930553E+02    0.52458E-06   -0.85559E-05 12960   0.158E-01    0.147E-02
DAV:   8    -0.386316951246E+02   -0.20693E-05   -0.37566E-05 15200   0.538E-02    0.853E-03
DAV:   9    -0.386316952514E+02   -0.12680E-06   -0.75341E-06 13780   0.315E-02    0.357E-03
DAV:  10    -0.386316956880E+02   -0.43659E-06   -0.15118E-06 11168   0.120E-02    0.153E-03
DAV:  11    -0.386316956781E+02    0.98480E-08   -0.39254E-07 13824   0.510E-03    0.565E-04
DAV:  12    -0.386316957101E+02   -0.31999E-07   -0.83192E-08 11264   0.260E-03    0.436E-04
DAV:  13    -0.386316957038E+02    0.63574E-08   -0.17925E-08  7460   0.189E-03
  34 F= -.38631696E+02 E0= -.38631696E+02  d E =-.129652E-01
 curvature:  -0.28 expect dE=-0.108E-01 dE for cont linesearch -0.196E-06
 trial: gam= 2.28278 g(F)=  0.335E-01 g(S)=  0.518E-02 ort = 0.159E-03 (trialstep = 0.635E-01)
 search vector abs. value=  0.228E+00
 bond charge predicted
       N       E                     dE             d eps       ncg     rms          rms(c)
DAV:   1    -0.386341316945E+02   -0.24360E-02   -0.18809E-01  9908   0.261E+00    0.263E-01
DAV:   2    -0.386336256404E+02    0.50605E-03   -0.98417E-03 10884   0.104E+00    0.132E-01
DAV:   3    -0.386334090218E+02    0.21662E-03   -0.72991E-04 12720   0.310E-01    0.681E-02
DAV:   4    -0.386333379007E+02    0.71121E-04   -0.19412E-04 11744   0.163E-01    0.199E-02
DAV:   5    -0.386333381642E+02   -0.26346E-06   -0.60799E-05 10888   0.889E-02    0.747E-03
DAV:   6    -0.386333383871E+02   -0.22292E-06   -0.13092E-05 11840   0.472E-02    0.389E-03
DAV:   7    -0.386333384139E+02   -0.26802E-07   -0.20464E-06 12008   0.275E-02    0.200E-03
DAV:   8    -0.386333384204E+02   -0.65183E-08   -0.60036E-07 13692   0.756E-03    0.116E-03
DAV:   9    -0.386333384110E+02    0.94124E-08   -0.97117E-08 10880   0.410E-03
  35 F= -.38633338E+02 E0= -.38633338E+02  d E =-.164271E-02
 trial-energy change:   -0.001643  1 .order   -0.001645   -0.002479   -0.000812
 step:   0.0945(harm=  0.0945)  dis= 0.00340  next Energy=   -38.633538 (dE=-0.184E-02)
 bond charge predicted
       N       E                     dE             d eps       ncg     rms          rms(c)
DAV:   1    -0.386337252248E+02   -0.38680E-03   -0.44581E-02  9908   0.127E+00    0.128E-01
DAV:   2    -0.386336055874E+02    0.11964E-03   -0.23350E-03 10820   0.507E-01    0.640E-02
DAV:   3    -0.386335550096E+02    0.50578E-04   -0.17478E-04 12684   0.152E-01    0.331E-02
DAV:   4    -0.386335384516E+02    0.16558E-04   -0.46813E-05 11772   0.804E-02    0.967E-03
DAV:   5    -0.386335386168E+02   -0.16522E-06   -0.14363E-05 10896   0.437E-02    0.365E-03
DAV:   6    -0.386335386833E+02   -0.66528E-07   -0.32142E-06 11888   0.237E-02    0.191E-03
DAV:   7    -0.386335386827E+02    0.56480E-09   -0.49935E-07 12064   0.138E-02    0.979E-04
DAV:   8    -0.386335386750E+02    0.77252E-08   -0.14840E-07 13348   0.369E-03    0.563E-04
DAV:   9    -0.386335386684E+02    0.65620E-08   -0.21439E-08  6676   0.205E-03
  36 F= -.38633539E+02 E0= -.38633539E+02  d E =-.184296E-02
 curvature:  -0.28 expect dE=-0.293E-02 dE for cont linesearch -0.482E-07
 trial: gam= 0.27383 g(F)=  0.927E-02 g(S)=  0.133E-02 ort = 0.200E-03 (trialstep = 0.697E-01)
 search vector abs. value=  0.278E-01
 bond charge predicted
       N       E                     dE             d eps       ncg     rms          rms(c)
DAV:   1    -0.386342740206E+02   -0.73535E-03   -0.28219E-02  9856   0.897E-01    0.605E-02
DAV:   2    -0.386342925108E+02   -0.18490E-04   -0.65455E-04 11688   0.204E-01    0.355E-02
DAV:   3    -0.386342706537E+02    0.21857E-04   -0.30461E-05 14440   0.548E-02    0.134E-02
DAV:   4    -0.386342681138E+02    0.25398E-05   -0.12923E-05 10740   0.282E-02    0.290E-03
DAV:   5    -0.386342683606E+02   -0.24671E-06   -0.35215E-06 11352   0.183E-02    0.207E-03
DAV:   6    -0.386342683484E+02    0.12157E-07   -0.27108E-07 11516   0.852E-03    0.136E-03
DAV:   7    -0.386342683456E+02    0.28094E-08   -0.11628E-07 12112   0.513E-03    0.677E-04
DAV:   8    -0.386342683423E+02    0.32605E-08   -0.35988E-08 10140   0.269E-03
  37 F= -.38634268E+02 E0= -.38634268E+02  d E =-.729674E-03
 ZBRENT: can't locate minimum, use default step
 trial-energy change:   -0.000730  1 .order   -0.000729   -0.000743   -0.000716
 step:   0.2789(harm=  1.9327)  dis= 0.00334  next Energy=   -38.643834 (dE=-0.103E-01)
 bond charge predicted
       N       E                     dE             d eps       ncg     rms          rms(c)
DAV:   1    -0.386363447168E+02   -0.20764E-02   -0.25403E-01  9856   0.269E+00    0.181E-01
DAV:   2    -0.386365097958E+02   -0.16508E-03   -0.58876E-03 11708   0.613E-01    0.107E-01
DAV:   3    -0.386363134226E+02    0.19637E-03   -0.27692E-04 14440   0.164E-01    0.402E-02
DAV:   4    -0.386362908949E+02    0.22528E-04   -0.11596E-04 10744   0.831E-02    0.856E-03
DAV:   5    -0.386362931841E+02   -0.22892E-05   -0.31394E-05 11356   0.519E-02    0.620E-03
DAV:   6    -0.386362930876E+02    0.96502E-07   -0.22098E-06 11640   0.240E-02    0.408E-03
DAV:   7    -0.386362931039E+02   -0.16305E-07   -0.10927E-06 13372   0.154E-02    0.203E-03
DAV:   8    -0.386362930926E+02    0.11290E-07   -0.31611E-07 11776   0.813E-03    0.100E-03
DAV:   9    -0.386362930995E+02   -0.69385E-08   -0.27844E-07 12268   0.304E-03    0.615E-04
DAV:  10    -0.386362930984E+02    0.10905E-08   -0.35979E-08  9648   0.215E-03
  38 F= -.38636293E+02 E0= -.38636293E+02  d E =-.275443E-02
 curvature:  -0.53 expect dE=-0.432E-02 dE for cont linesearch -0.159E-02
 ZBRENT: increasing intervall
 opt :   0.6973  next Energy=   -38.639600 (dE=-0.606E-02)
 bond charge predicted
       N       E                     dE             d eps       ncg     rms          rms(c)
DAV:   1    -0.386397941885E+02   -0.35011E-02   -0.10166E+00  9856   0.539E+00    0.363E-01
DAV:   2    -0.386404566474E+02   -0.66246E-03   -0.23586E-02 11680   0.123E+00    0.213E-01
DAV:   3    -0.386396734144E+02    0.78323E-03   -0.11238E-03 14580   0.333E-01    0.805E-02
DAV:   4    -0.386395829905E+02    0.90424E-04   -0.46377E-04 10684   0.164E-01    0.164E-02
DAV:   5    -0.386395924295E+02   -0.94390E-05   -0.12455E-04 11300   0.917E-02    0.121E-02
DAV:   6    -0.386395918797E+02    0.54980E-06   -0.51421E-06 12436   0.294E-02    0.796E-03
DAV:   7    -0.386395920170E+02   -0.13727E-06   -0.43466E-06 13176   0.277E-02    0.339E-03
DAV:   8    -0.386395919506E+02    0.66427E-07   -0.12406E-06 11788   0.165E-02    0.197E-03
DAV:   9    -0.386395919712E+02   -0.20633E-07   -0.98989E-07 12464   0.562E-03    0.118E-03
DAV:  10    -0.386395919565E+02    0.14693E-07   -0.14614E-07 12872   0.341E-03    0.519E-04
DAV:  11    -0.386395919666E+02   -0.10092E-07   -0.67522E-08  9636   0.177E-03    0.174E-04
DAV:  12    -0.386395919675E+02   -0.87311E-09   -0.56937E-09  5428   0.726E-04
  39 F= -.38639592E+02 E0= -.38639592E+02  d E =-.605330E-02
 curvature:  -1.11 expect dE=-0.669E-02 dE for cont linesearch -0.179E-02
 ZBRENT: increasing intervall
 opt :   1.5340  next Energy=   -38.643185 (dE=-0.965E-02)
 bond charge predicted
       N       E                     dE             d eps       ncg     rms          rms(c)
DAV:   1    -0.386438997387E+02   -0.43078E-02   -0.40719E+00  9856   0.108E+01    0.727E-01
DAV:   2    -0.386466064572E+02   -0.27067E-02   -0.95061E-02 11704   0.248E+00    0.428E-01
DAV:   3    -0.386434928795E+02    0.31136E-02   -0.46646E-03 14868   0.714E-01    0.164E-01
DAV:   4    -0.386431097802E+02    0.38310E-03   -0.18994E-03 10424   0.355E-01    0.325E-02
DAV:   5    -0.386431525353E+02   -0.42755E-04   -0.54166E-04 11396   0.191E-01    0.250E-02
DAV:   6    -0.386431499515E+02    0.25839E-05   -0.20508E-05 12368   0.600E-02    0.163E-02
DAV:   7    -0.386431503871E+02   -0.43560E-06   -0.18151E-05 12876   0.470E-02    0.699E-03
DAV:   8    -0.386431502939E+02    0.93154E-07   -0.48409E-06 11480   0.304E-02    0.416E-03
DAV:   9    -0.386431503207E+02   -0.26772E-07   -0.41715E-06 12624   0.117E-02    0.248E-03
DAV:  10    -0.386431502502E+02    0.70470E-07   -0.69030E-07 12992   0.854E-03    0.108E-03
DAV:  11    -0.386431502824E+02   -0.32219E-07   -0.26956E-07 11196   0.447E-03    0.249E-04
DAV:  12    -0.386431502859E+02   -0.34534E-08   -0.20437E-08  7392   0.146E-03
  40 F= -.38643150E+02 E0= -.38643150E+02  d E =-.961162E-02
 curvature:  -2.23 expect dE=-0.178E-01 dE for cont linesearch -0.264E-03
 ZBRENT: extrapolating
 opt :   1.8449  next Energy=   -38.643432 (dE=-0.989E-02)
 bond charge predicted
       N       E                     dE             d eps       ncg     rms          rms(c)
DAV:   1    -0.386435190113E+02   -0.36873E-03   -0.56189E-01  9856   0.400E+00    0.270E-01
DAV:   2    -0.386438939858E+02   -0.37497E-03   -0.13105E-02 11708   0.919E-01    0.159E-01
DAV:   3    -0.386434589611E+02    0.43502E-03   -0.62309E-04 14376   0.257E-01    0.597E-02
DAV:   4    -0.386434097532E+02    0.49208E-04   -0.26082E-04 10592   0.125E-01    0.124E-02
DAV:   5    -0.386434150125E+02   -0.52594E-05   -0.70245E-05 11328   0.707E-02    0.910E-03
DAV:   6    -0.386434147285E+02    0.28401E-06   -0.35762E-06 11852   0.264E-02    0.599E-03
DAV:   7    -0.386434147997E+02   -0.71207E-07   -0.24946E-06 13704   0.207E-02    0.284E-03
DAV:   8    -0.386434147659E+02    0.33778E-07   -0.70270E-07 11576   0.122E-02    0.158E-03
DAV:   9    -0.386434147746E+02   -0.87020E-08   -0.64361E-07 13136   0.441E-03    0.933E-04
DAV:  10    -0.386434147690E+02    0.55998E-08   -0.92305E-08 12272   0.336E-03
  41 F= -.38643415E+02 E0= -.38643415E+02  d E =-.987610E-02
 curvature:  -2.39 expect dE=-0.258E-01 dE for cont linesearch -0.957E-07
 trial: gam= 0.91465 g(F)=  0.302E-02 g(S)=  0.778E-02 ort =-0.334E-04 (trialstep = 0.347E+00)
 search vector abs. value=  0.340E-01
 bond charge predicted
       N       E                     dE             d eps       ncg     rms          rms(c)
DAV:   1    -0.386532565926E+02   -0.98418E-02   -0.72305E-01 10320   0.638E+00    0.756E-01
DAV:   2    -0.386481074262E+02    0.51492E-02   -0.74400E-02 11380   0.343E+00    0.327E-01
DAV:   3    -0.386469281415E+02    0.11793E-02   -0.55522E-03 13152   0.815E-01    0.167E-01
DAV:   4    -0.386463550542E+02    0.57309E-03   -0.10649E-03 14032   0.520E-01    0.396E-02
DAV:   5    -0.386463528655E+02    0.21887E-05   -0.35989E-04 10524   0.245E-01    0.161E-02
DAV:   6    -0.386463554158E+02   -0.25503E-05   -0.82456E-05 12856   0.108E-01    0.102E-02
DAV:   7    -0.386463553468E+02    0.68996E-07   -0.10883E-05 12216   0.600E-02    0.538E-03
DAV:   8    -0.386463558713E+02   -0.52448E-06   -0.49620E-06 15260   0.237E-02    0.326E-03
DAV:   9    -0.386463559398E+02   -0.68466E-07   -0.20424E-06 13516   0.183E-02    0.120E-03
DAV:  10    -0.386463559726E+02   -0.32837E-07   -0.25566E-07 10872   0.101E-02    0.715E-04
DAV:  11    -0.386463559846E+02   -0.11948E-07   -0.10129E-07 12540   0.288E-03    0.222E-04
DAV:  12    -0.386463559937E+02   -0.91668E-08   -0.17812E-08  8180   0.155E-03
  42 F= -.38646356E+02 E0= -.38646356E+02  d E =-.294122E-02
 trial-energy change:   -0.002941  1 .order   -0.002938   -0.003742   -0.002134
 step:   0.8083(harm=  0.8083)  dis= 0.00980  next Energy=   -38.647769 (dE=-0.435E-02)
 bond charge predicted
       N       E                     dE             d eps       ncg     rms          rms(c)
DAV:   1    -0.386597240408E+02   -0.13368E-01   -0.12733E+00 10320   0.847E+00    0.999E-01
DAV:   2    -0.386507953370E+02    0.89287E-02   -0.13047E-01 11356   0.453E+00    0.434E-01
DAV:   3    -0.386487430213E+02    0.20523E-02   -0.97900E-03 13180   0.108E+00    0.221E-01
DAV:   4    -0.386477387404E+02    0.10043E-02   -0.18686E-03 14040   0.687E-01    0.526E-02
DAV:   5    -0.386477349243E+02    0.38161E-05   -0.63022E-04 10528   0.323E-01    0.212E-02
DAV:   6    -0.386477393751E+02   -0.44508E-05   -0.14393E-04 12904   0.143E-01    0.134E-02
DAV:   7    -0.386477392002E+02    0.17495E-06   -0.18804E-05 12256   0.794E-02    0.709E-03
DAV:   8    -0.386477400334E+02   -0.83327E-06   -0.86650E-06 15232   0.313E-02    0.428E-03
DAV:   9    -0.386477401277E+02   -0.94296E-07   -0.36166E-06 13544   0.243E-02    0.161E-03
DAV:  10    -0.386477401700E+02   -0.42306E-07   -0.45079E-07 10888   0.135E-02    0.931E-04
DAV:  11    -0.386477401890E+02   -0.19019E-07   -0.18386E-07 12884   0.378E-03    0.284E-04
DAV:  12    -0.386477402028E+02   -0.13727E-07   -0.30445E-08  9864   0.200E-03    0.220E-04
DAV:  13    -0.386477402058E+02   -0.30104E-08   -0.46324E-09  5868   0.123E-03
  43 F= -.38647740E+02 E0= -.38647740E+02  d E =-.432544E-02
 curvature:  -1.28 expect dE=-0.840E-01 dE for cont linesearch -0.553E-06
 trial: gam= 6.08561 g(F)=  0.615E-01 g(S)=  0.438E-02 ort =-0.121E-03 (trialstep = 0.113E-01)
 search vector abs. value=  0.132E+01
 bond charge predicted
       N       E                     dE             d eps       ncg     rms          rms(c)
DAV:   1    -0.386487287399E+02   -0.98854E-03   -0.29975E-02 10272   0.125E+00    0.149E-01
DAV:   2    -0.386485249143E+02    0.20383E-03   -0.28629E-03 11328   0.656E-01    0.654E-02
DAV:   3    -0.386484745769E+02    0.50337E-04   -0.21798E-04 13136   0.164E-01    0.335E-02
DAV:   4    -0.386484519448E+02    0.22632E-04   -0.48075E-05 13644   0.988E-02    0.840E-03
DAV:   5    -0.386484517088E+02    0.23605E-06   -0.14766E-05 10488   0.466E-02    0.380E-03
DAV:   6    -0.386484517315E+02   -0.22717E-07   -0.39125E-06 13796   0.245E-02    0.223E-03
DAV:   7    -0.386484517269E+02    0.45720E-08   -0.67452E-07 12112   0.140E-02    0.108E-03
DAV:   8    -0.386484517702E+02   -0.43278E-07   -0.25379E-07 14316   0.468E-03    0.716E-04
DAV:   9    -0.386484517802E+02   -0.10032E-07   -0.80925E-08 11792   0.335E-03    0.263E-04
DAV:  10    -0.386484517911E+02   -0.10847E-07   -0.98490E-09  5896   0.208E-03    0.139E-04
DAV:  11    -0.386484517924E+02   -0.13724E-08   -0.41255E-09  5228   0.774E-04
  44 F= -.38648452E+02 E0= -.38648452E+02  d E =-.711587E-03
 ZBRENT: can't locate minimum, use default step
 trial-energy change:   -0.000712  1 .order   -0.000711   -0.000735   -0.000687
 step:   0.0452(harm=  0.1719)  dis= 0.00347  next Energy=   -38.653338 (dE=-0.560E-02)
 bond charge predicted
       N       E                     dE             d eps       ncg     rms          rms(c)
DAV:   1    -0.386527737950E+02   -0.43220E-02   -0.26997E-01 10264   0.375E+00    0.447E-01
DAV:   2    -0.386509457141E+02    0.18281E-02   -0.25694E-02 11320   0.196E+00    0.196E-01
DAV:   3    -0.386505012079E+02    0.44451E-03   -0.19494E-03 13132   0.487E-01    0.100E-01
DAV:   4    -0.386503024689E+02    0.19874E-03   -0.42831E-04 13592   0.295E-01    0.251E-02
DAV:   5    -0.386503016769E+02    0.79198E-06   -0.13211E-04 10488   0.140E-01    0.113E-02
DAV:   6    -0.386503020284E+02   -0.35150E-06   -0.34626E-05 13796   0.729E-02    0.661E-03
DAV:   7    -0.386503018857E+02    0.14269E-06   -0.58708E-06 12068   0.417E-02    0.322E-03
DAV:   8    -0.386503021021E+02   -0.21641E-06   -0.22542E-06 14588   0.141E-02    0.214E-03
DAV:   9    -0.386503021279E+02   -0.25849E-07   -0.70706E-07 13508   0.983E-03    0.772E-04
DAV:  10    -0.386503021692E+02   -0.41259E-07   -0.96583E-08 10780   0.595E-03    0.447E-04
DAV:  11    -0.386503021732E+02   -0.39927E-08   -0.36824E-08 10136   0.212E-03
  45 F= -.38650302E+02 E0= -.38650302E+02  d E =-.256197E-02
 curvature:  -0.66 expect dE=-0.249E-01 dE for cont linesearch -0.115E-02
 ZBRENT: increasing intervall
 opt :   0.1129  next Energy=   -38.652689 (dE=-0.495E-02)
 bond charge predicted
       N       E                     dE             d eps       ncg     rms          rms(c)
DAV:   1    -0.386624554692E+02   -0.12153E-01   -0.10805E+00 10264   0.752E+00    0.892E-01
DAV:   2    -0.386552383272E+02    0.72171E-02   -0.10217E-01 11288   0.389E+00    0.392E-01
DAV:   3    -0.386534776826E+02    0.17606E-02   -0.77279E-03 13028   0.961E-01    0.200E-01
DAV:   4    -0.386526906181E+02    0.78706E-03   -0.17006E-03 13528   0.591E-01    0.501E-02
DAV:   5    -0.386526887308E+02    0.18873E-05   -0.52424E-04 10488   0.281E-01    0.223E-02
DAV:   6    -0.386526904044E+02   -0.16735E-05   -0.13636E-04 13800   0.143E-01    0.130E-02
DAV:   7    -0.386526897820E+02    0.62240E-06   -0.22460E-05 12116   0.823E-02    0.638E-03
DAV:   8    -0.386526904573E+02   -0.67530E-06   -0.87216E-06 14476   0.286E-02    0.424E-03
DAV:   9    -0.386526904934E+02   -0.36185E-07   -0.27481E-06 13496   0.195E-02    0.150E-03
DAV:  10    -0.386526906066E+02   -0.11316E-06   -0.39077E-07 11160   0.116E-02    0.892E-04
DAV:  11    -0.386526906148E+02   -0.81554E-08   -0.14249E-07 13028   0.427E-03    0.308E-04
DAV:  12    -0.386526906210E+02   -0.61927E-08   -0.33578E-08 10012   0.159E-03
  46 F= -.38652691E+02 E0= -.38652691E+02  d E =-.495042E-02
 curvature:  -1.37 expect dE=-0.179E-01 dE for cont linesearch -0.534E-03
 ZBRENT: increasing intervall
 opt :   0.2484  next Energy=   -38.652340 (dE=-0.460E-02)
 bond charge predicted
       N       E                     dE             d eps       ncg     rms          rms(c)
DAV:   1    -0.386912849272E+02   -0.38594E-01   -0.43353E+00 10656   0.151E+01    0.177E+00
DAV:   2    -0.386625882142E+02    0.28697E-01   -0.39377E-01 11252   0.752E+00    0.785E-01
DAV:   3    -0.386554692398E+02    0.71190E-02   -0.29634E-02 12820   0.185E+00    0.398E-01
DAV:   4    -0.386523545585E+02    0.31147E-02   -0.65645E-03 13276   0.110E+00    0.100E-01
DAV:   5    -0.386523616558E+02   -0.70973E-05   -0.21341E-03 10500   0.555E-01    0.437E-02
DAV:   6    -0.386523672807E+02   -0.56249E-05   -0.49556E-04 14088   0.283E-01    0.252E-02
DAV:   7    -0.386523653066E+02    0.19741E-05   -0.79605E-05 12624   0.156E-01    0.122E-02
DAV:   8    -0.386523675726E+02   -0.22660E-05   -0.31139E-05 14096   0.560E-02    0.815E-03
DAV:   9    -0.386523675783E+02   -0.57271E-08   -0.10218E-05 13564   0.380E-02    0.284E-03
DAV:  10    -0.386523678980E+02   -0.31966E-06   -0.14689E-06 10948   0.228E-02    0.170E-03
DAV:  11    -0.386523679188E+02   -0.20804E-07   -0.52613E-07 13428   0.820E-03    0.606E-04
DAV:  12    -0.386523679416E+02   -0.22837E-07   -0.12730E-07 10556   0.329E-03    0.448E-04
DAV:  13    -0.386523679562E+02   -0.14589E-07   -0.28080E-08  8184   0.187E-03    0.220E-04
DAV:  14    -0.386523679541E+02    0.20937E-08   -0.92770E-09  5744   0.146E-03
  47 F= -.38652368E+02 E0= -.38652368E+02  d E =-.462775E-02
 curvature:   0.90 expect dE= 0.243E-01 dE for cont linesearch  0.497E-03
 ZBRENT: bracketing found
 ZBRENT: interpolating
 opt :   0.1747  next Energy=   -38.653393 (dE=-0.565E-02)
 bond charge predicted
       N       E                     dE             d eps       ncg     rms          rms(c)
DAV:   1    -0.386649350639E+02   -0.12567E-01   -0.12636E+00 10244   0.798E+00    0.964E-01
DAV:   2    -0.386563321008E+02    0.86030E-02   -0.11865E-01 11328   0.416E+00    0.423E-01
DAV:   3    -0.386542711493E+02    0.20610E-02   -0.90726E-03 13020   0.107E+00    0.217E-01
DAV:   4    -0.386533734512E+02    0.89770E-03   -0.20678E-03 13668   0.660E-01    0.553E-02
DAV:   5    -0.386533736321E+02   -0.18092E-06   -0.63297E-04 10596   0.321E-01    0.251E-02
DAV:   6    -0.386533765394E+02   -0.29073E-05   -0.17196E-04 13448   0.157E-01    0.147E-02
DAV:   7    -0.386533753990E+02    0.11404E-05   -0.29955E-05 12108   0.885E-02    0.703E-03
DAV:   8    -0.386533759085E+02   -0.50950E-06   -0.10507E-05 15120   0.305E-02    0.477E-03
DAV:   9    -0.386533758352E+02    0.73358E-07   -0.32139E-06 13392   0.214E-02    0.169E-03
DAV:  10    -0.386533758317E+02    0.34415E-08   -0.46790E-07 11304   0.130E-02    0.104E-03
DAV:  11    -0.386533758234E+02    0.82855E-08   -0.17797E-07 13220   0.448E-03    0.365E-04
DAV:  12    -0.386533758278E+02   -0.43819E-08   -0.40500E-08 10012   0.172E-03
  48 F= -.38653376E+02 E0= -.38653376E+02  d E =-.563562E-02
 curvature:  -1.27 expect dE=-0.114E-01 dE for cont linesearch -0.111E-06
 trial: gam= 0.10030 g(F)=  0.625E-02 g(S)=  0.277E-02 ort =-0.341E-03 (trialstep = 0.440E-01)
 search vector abs. value=  0.223E-01
 bond charge predicted
       N       E                     dE             d eps       ncg     rms          rms(c)
DAV:   1    -0.386537966809E+02   -0.42086E-03   -0.65449E-03  9880   0.478E-01    0.506E-02
DAV:   2    -0.386537835314E+02    0.13150E-04   -0.25914E-04 10984   0.179E-01    0.295E-02
DAV:   3    -0.386537689046E+02    0.14627E-04   -0.32097E-05 14580   0.727E-02    0.108E-02
DAV:   4    -0.386537670933E+02    0.18113E-05   -0.79584E-06 10576   0.402E-02    0.234E-03
DAV:   5    -0.386537673036E+02   -0.21031E-06   -0.25184E-06 10704   0.188E-02    0.157E-03
DAV:   6    -0.386537673101E+02   -0.64438E-08   -0.28831E-07 12100   0.100E-02    0.947E-04
DAV:   7    -0.386537673255E+02   -0.15450E-07   -0.90889E-08 11308   0.397E-03    0.365E-04
DAV:   8    -0.386537673278E+02   -0.22592E-08   -0.16896E-08  5964   0.201E-03
  49 F= -.38653767E+02 E0= -.38653767E+02  d E =-.391500E-03
 ZBRENT: can't locate minimum, use default step
 trial-energy change:   -0.000391  1 .order   -0.000392   -0.000395   -0.000389
 step:   0.1759(harm=  2.6458)  dis= 0.00157  next Energy=   -38.665269 (dE=-0.119E-01)
 bond charge predicted
       N       E                     dE             d eps       ncg     rms          rms(c)
DAV:   1    -0.386551664885E+02   -0.13992E-02   -0.58899E-02  9880   0.143E+00    0.152E-01
DAV:   2    -0.386550473063E+02    0.11918E-03   -0.23325E-03 10988   0.537E-01    0.885E-02
DAV:   3    -0.386549177152E+02    0.12959E-03   -0.28733E-04 14508   0.218E-01    0.325E-02
DAV:   4    -0.386549019027E+02    0.15812E-04   -0.71624E-05 10620   0.121E-01    0.704E-03
DAV:   5    -0.386549036782E+02   -0.17755E-05   -0.22549E-05 10696   0.563E-02    0.471E-03
DAV:   6    -0.386549037176E+02   -0.39435E-07   -0.26146E-06 12088   0.297E-02    0.284E-03
DAV:   7    -0.386549037999E+02   -0.82237E-07   -0.81733E-07 12032   0.121E-02    0.110E-03
DAV:   8    -0.386549038088E+02   -0.88858E-08   -0.18508E-07 13244   0.581E-03    0.467E-04
DAV:   9    -0.386549038213E+02   -0.12545E-07   -0.72912E-08 10512   0.267E-03    0.356E-04
DAV:  10    -0.386549038228E+02   -0.14488E-08   -0.92882E-09  5504   0.169E-03
  50 F= -.38654904E+02 E0= -.38654904E+02  d E =-.152799E-02
 curvature:  -0.32 expect dE=-0.254E-02 dE for cont linesearch -0.102E-02
 ZBRENT: increasing intervall
 opt :   0.4398  next Energy=   -38.656996 (dE=-0.362E-02)
 bond charge predicted
       N       E                     dE             d eps       ncg     rms          rms(c)
DAV:   1    -0.386580430768E+02   -0.31393E-02   -0.23563E-01  9880   0.287E+00    0.303E-01
DAV:   2    -0.386575684232E+02    0.47465E-03   -0.93416E-03 10972   0.107E+00    0.177E-01
DAV:   3    -0.386570517127E+02    0.51671E-03   -0.11436E-03 14496   0.431E-01    0.650E-02
DAV:   4    -0.386569890417E+02    0.62671E-04   -0.28528E-04 10584   0.237E-01    0.140E-02
DAV:   5    -0.386569959104E+02   -0.68687E-05   -0.88769E-05 10708   0.112E-01    0.938E-03
DAV:   6    -0.386569960483E+02   -0.13787E-06   -0.10284E-05 12068   0.585E-02    0.564E-03
DAV:   7    -0.386569963107E+02   -0.26240E-06   -0.31866E-06 11960   0.242E-02    0.216E-03
DAV:   8    -0.386569963367E+02   -0.26065E-07   -0.73297E-07 13540   0.110E-02    0.917E-04
DAV:   9    -0.386569963756E+02   -0.38835E-07   -0.27532E-07 10708   0.516E-03    0.699E-04
DAV:  10    -0.386569963786E+02   -0.30495E-08   -0.52437E-08 10972   0.338E-03
  51 F= -.38656996E+02 E0= -.38656996E+02  d E =-.362055E-02
 curvature:  -0.66 expect dE=-0.421E-02 dE for cont linesearch -0.166E-02
 ZBRENT: increasing intervall
 opt :   0.9675  next Energy=   -38.660465 (dE=-0.709E-02)
 bond charge predicted
       N       E                     dE             d eps       ncg     rms          rms(c)
DAV:   1    -0.386646287205E+02   -0.76323E-02   -0.94278E-01  9880   0.575E+00    0.606E-01
DAV:   2    -0.386627527866E+02    0.18759E-02   -0.37466E-02 10952   0.214E+00    0.354E-01
DAV:   3    -0.386606929388E+02    0.20598E-02   -0.45665E-03 14424   0.848E-01    0.130E-01
DAV:   4    -0.386604429527E+02    0.24999E-03   -0.11349E-03 10548   0.459E-01    0.276E-02
DAV:   5    -0.386604696177E+02   -0.26665E-04   -0.34865E-04 10740   0.221E-01    0.186E-02
DAV:   6    -0.386604701350E+02   -0.51729E-06   -0.39969E-05 12036   0.113E-01    0.113E-02
DAV:   7    -0.386604710598E+02   -0.92485E-06   -0.12667E-05 11864   0.484E-02    0.442E-03
DAV:   8    -0.386604711285E+02   -0.68680E-07   -0.30546E-06 13960   0.210E-02    0.182E-03
DAV:   9    -0.386604712561E+02   -0.12758E-06   -0.10414E-06 10756   0.981E-03    0.139E-03
DAV:  10    -0.386604712638E+02   -0.77080E-08   -0.23331E-07 15200   0.487E-03    0.532E-04
DAV:  11    -0.386604713001E+02   -0.36272E-07   -0.10025E-07 10200   0.233E-03    0.459E-04
DAV:  12    -0.386604712967E+02    0.33278E-08   -0.89751E-09  5556   0.101E-03
  52 F= -.38660471E+02 E0= -.38660471E+02  d E =-.709547E-02
 curvature:  -1.38 expect dE=-0.610E-02 dE for cont linesearch -0.200E-02
 ZBRENT: increasing intervall
 opt :   2.0231  next Energy=   -38.664570 (dE=-0.112E-01)
 bond charge predicted
       N       E                     dE             d eps       ncg     rms          rms(c)
DAV:   1    -0.386809757512E+02   -0.20504E-01   -0.37735E+00  9880   0.115E+01    0.121E+00
DAV:   2    -0.386737061598E+02    0.72696E-02   -0.15116E-01 10916   0.427E+00    0.709E-01
DAV:   3    -0.386654987107E+02    0.82074E-02   -0.18152E-02 14428   0.167E+00    0.260E-01
DAV:   4    -0.386644859770E+02    0.10127E-02   -0.45536E-03 10596   0.889E-01    0.541E-02
DAV:   5    -0.386645891547E+02   -0.10318E-03   -0.13698E-03 10776   0.442E-01    0.367E-02
DAV:   6    -0.386645915195E+02   -0.23648E-05   -0.15795E-04 11952   0.221E-01    0.225E-02
DAV:   7    -0.386645949517E+02   -0.34322E-05   -0.50297E-05 12456   0.966E-02    0.917E-03
DAV:   8    -0.386645951792E+02   -0.22743E-06   -0.12235E-05 14184   0.407E-02    0.360E-03
DAV:   9    -0.386645956127E+02   -0.43356E-06   -0.39140E-06 11172   0.209E-02    0.268E-03
DAV:  10    -0.386645956443E+02   -0.31596E-07   -0.92225E-07 16024   0.858E-03    0.100E-03
DAV:  11    -0.386645957446E+02   -0.10031E-06   -0.36370E-07 10264   0.509E-03    0.897E-04
DAV:  12    -0.386645957349E+02    0.97061E-08   -0.49715E-08 10432   0.246E-03
  53 F= -.38664596E+02 E0= -.38664596E+02  d E =-.112199E-01
 curvature:  -2.83 expect dE=-0.118E-01 dE for cont linesearch -0.568E-03
 ZBRENT: increasing intervall
 opt :   4.1341  next Energy=   -38.661533 (dE=-0.816E-02)
 bond charge predicted
       N       E                     dE             d eps       ncg     rms          rms(c)
DAV:   1    -0.387246207499E+02   -0.60025E-01   -0.15118E+01  9876   0.232E+01    0.242E+00
DAV:   2    -0.386979201156E+02    0.26701E-01   -0.62171E-01 10900   0.855E+00    0.142E+00
DAV:   3    -0.386653649034E+02    0.32555E-01   -0.72343E-02 14360   0.330E+00    0.530E-01
DAV:   4    -0.386610722633E+02    0.42926E-02   -0.18570E-02 10556   0.168E+00    0.107E-01
DAV:   5    -0.386614551387E+02   -0.38288E-03   -0.54051E-03 11080   0.865E-01    0.717E-02
DAV:   6    -0.386614680137E+02   -0.12875E-04   -0.62874E-04 11528   0.409E-01    0.447E-02
DAV:   7    -0.386614793772E+02   -0.11363E-04   -0.18538E-04 13436   0.197E-01    0.197E-02
DAV:   8    -0.386614815115E+02   -0.21343E-05   -0.45381E-05 14068   0.762E-02    0.703E-03
DAV:   9    -0.386614830295E+02   -0.15180E-05   -0.13984E-05 11192   0.366E-02    0.498E-03
DAV:  10    -0.386614831631E+02   -0.13359E-06   -0.31192E-06 15396   0.161E-02    0.194E-03
DAV:  11    -0.386614834894E+02   -0.32630E-06   -0.12827E-06 10364   0.902E-03    0.180E-03
DAV:  12    -0.386614834433E+02    0.46146E-07   -0.20599E-07 13864   0.452E-03    0.732E-04
DAV:  13    -0.386614834631E+02   -0.19842E-07   -0.20814E-07 11048   0.264E-03    0.505E-04
DAV:  14    -0.386614834667E+02   -0.35925E-08   -0.19576E-08  8168   0.212E-03
  54 F= -.38661483E+02 E0= -.38661483E+02  d E =-.810764E-02
 curvature:  15.25 expect dE= 0.301E+00 dE for cont linesearch  0.179E-01
 ZBRENT: bracketing found
[...]
       N       E                     dE             d eps       ncg     rms          rms(c)
DAV:   1    -0.387027912762E+02   -0.72976E-05   -0.11578E-03  9904   0.198E-01    0.170E-02
DAV:   2    -0.387027905138E+02    0.76235E-06   -0.45963E-05 10764   0.804E-02    0.882E-03
DAV:   3    -0.387027897305E+02    0.78335E-06   -0.48441E-06 12860   0.320E-02    0.442E-03
DAV:   4    -0.387027894812E+02    0.24929E-06   -0.10849E-06 11340   0.214E-02    0.110E-03
DAV:   5    -0.387027895150E+02   -0.33793E-07   -0.42675E-07 10524   0.943E-03    0.519E-04
DAV:   6    -0.387027895210E+02   -0.60290E-08   -0.10230E-07 10004   0.398E-03    0.320E-04
DAV:   7    -0.387027895184E+02    0.26139E-08   -0.14068E-08  5664   0.277E-03
 280 F= -.38702790E+02 E0= -.38702790E+02  d E =-.963783E-05
 curvature:  -1.02 expect dE=-0.323E-03 dE for cont linesearch -0.404E-05
 ZBRENT: increasing intervall
 opt :   0.0687  next Energy=   -38.702798 (dE=-0.182E-04)
 bond charge predicted
       N       E                     dE             d eps       ncg     rms          rms(c)
DAV:   1    -0.387028084777E+02   -0.18957E-04   -0.46301E-03  9904   0.395E-01    0.341E-02
DAV:   2    -0.387028055475E+02    0.29302E-05   -0.18333E-04 10772   0.159E-01    0.176E-02
DAV:   3    -0.387028021519E+02    0.33956E-05   -0.19173E-05 12852   0.621E-02    0.883E-03
DAV:   4    -0.387028010290E+02    0.11229E-05   -0.42612E-06 11332   0.420E-02    0.220E-03
DAV:   5    -0.387028011344E+02   -0.10542E-06   -0.16691E-06 10520   0.188E-02    0.104E-03
DAV:   6    -0.387028011592E+02   -0.24833E-07   -0.40310E-07 11532   0.787E-03    0.640E-04
DAV:   7    -0.387028011550E+02    0.42146E-08   -0.59278E-08  9652   0.531E-03
 281 F= -.38702801E+02 E0= -.38702801E+02  d E =-.212745E-04
 curvature:  -2.17 expect dE=-0.499E-03 dE for cont linesearch -0.413E-05
 ZBRENT: increasing intervall
 opt :   0.1436  next Energy=   -38.702809 (dE=-0.291E-04)
 bond charge predicted
       N       E                     dE             d eps       ncg     rms          rms(c)
DAV:   1    -0.387028410484E+02   -0.39889E-04   -0.18514E-02  9904   0.790E-01    0.681E-02
DAV:   2    -0.387028296716E+02    0.11377E-04   -0.73345E-04 10760   0.319E-01    0.353E-02
DAV:   3    -0.387028155893E+02    0.14082E-04   -0.76841E-05 12852   0.124E-01    0.177E-02
DAV:   4    -0.387028108517E+02    0.47377E-05   -0.17066E-05 11316   0.842E-02    0.441E-03
DAV:   5    -0.387028112205E+02   -0.36880E-06   -0.66877E-06 10516   0.376E-02    0.208E-03
DAV:   6    -0.387028113228E+02   -0.10231E-06   -0.16225E-06 11540   0.158E-02    0.128E-03
DAV:   7    -0.387028113181E+02    0.47376E-08   -0.24573E-07 11952   0.106E-02    0.636E-04
DAV:   8    -0.387028113161E+02    0.19281E-08   -0.10477E-07 12360   0.312E-03    0.258E-04
DAV:   9    -0.387028113134E+02    0.26794E-08   -0.92316E-09  5324   0.899E-04
 282 F= -.38702811E+02 E0= -.38702811E+02  d E =-.314329E-04
 curvature:  -4.12 expect dE=-0.483E-03 dE for cont linesearch -0.365E-06
 ZBRENT: extrapolating
 opt :   0.1642  next Energy=   -38.702812 (dE=-0.318E-04)
 bond charge predicted
       N       E                     dE             d eps       ncg     rms          rms(c)
DAV:   1    -0.387028138358E+02   -0.25197E-05   -0.13988E-03  9904   0.218E-01    0.187E-02
DAV:   2    -0.387028129012E+02    0.93468E-06   -0.55347E-05 10768   0.873E-02    0.968E-03
DAV:   3    -0.387028119430E+02    0.95812E-06   -0.57776E-06 12860   0.339E-02    0.485E-03
DAV:   4    -0.387028116336E+02    0.30947E-06   -0.12773E-06 11316   0.229E-02    0.120E-03
DAV:   5    -0.387028116722E+02   -0.38608E-07   -0.50172E-07 10520   0.103E-02    0.568E-04
DAV:   6    -0.387028116793E+02   -0.71577E-08   -0.11961E-07 10448   0.433E-03    0.352E-04
DAV:   7    -0.387028116765E+02    0.28758E-08   -0.16852E-08  6656   0.299E-03
 283 F= -.38702812E+02 E0= -.38702812E+02  d E =-.317959E-04
 curvature:  -4.68 expect dE=-0.463E-03 dE for cont linesearch -0.367E-07
 trial: gam=-0.15268 g(F)=  0.831E-04 g(S)=  0.159E-04 ort =-0.120E-04 (trialstep = 0.353E-01)
 search vector abs. value=  0.530E-03
 bond charge predicted
       N       E                     dE             d eps       ncg     rms          rms(c)
DAV:   1    -0.387028153542E+02   -0.36749E-05   -0.11841E-04 10064   0.720E-02    0.718E-03
DAV:   2    -0.387028151069E+02    0.24736E-06   -0.79341E-06 10740   0.355E-02    0.345E-03
DAV:   3    -0.387028149046E+02    0.20222E-06   -0.78435E-07 12372   0.113E-02    0.176E-03
DAV:   4    -0.387028148146E+02    0.90032E-07   -0.15867E-07 11572   0.715E-03    0.485E-04
DAV:   5    -0.387028148084E+02    0.62419E-08   -0.53295E-08 10116   0.383E-03
 284 F= -.38702815E+02 E0= -.38702815E+02  d E =-.313192E-05
 ZBRENT: can't locate minimum, use default step
 trial-energy change:   -0.000003  1 .order   -0.000003   -0.000004   -0.000003
 step:   0.1414(harm=  0.1559)  dis= 0.00025  next Energy=   -38.702820 (dE=-0.786E-05)
 bond charge predicted
       N       E                     dE             d eps       ncg     rms          rms(c)
DAV:   1    -0.387028241049E+02   -0.92903E-05   -0.10677E-03 10064   0.215E-01    0.216E-02
DAV:   2    -0.387028216886E+02    0.24163E-05   -0.71489E-05 10776   0.106E-01    0.103E-02
DAV:   3    -0.387028202811E+02    0.14075E-05   -0.70584E-06 12344   0.330E-02    0.527E-03
DAV:   4    -0.387028196759E+02    0.60516E-06   -0.14080E-06 11612   0.211E-02    0.145E-03
DAV:   5    -0.387028196608E+02    0.15155E-07   -0.47251E-07 10872   0.114E-02    0.535E-04
DAV:   6    -0.387028196712E+02   -0.10416E-07   -0.12816E-07 10460   0.432E-03    0.364E-04
DAV:   7    -0.387028196751E+02   -0.38863E-08   -0.15269E-08  5508   0.242E-03
 285 F= -.38702820E+02 E0= -.38702820E+02  d E =-.799862E-05
 curvature:  -0.40 expect dE=-0.294E-04 dE for cont linesearch -0.120E-06
 trial: gam= 0.61301 g(F)=  0.607E-04 g(S)=  0.122E-04 ort = 0.126E-04 (trialstep = 0.565E-01)
 search vector abs. value=  0.287E-03
 bond charge predicted
       N       E                     dE             d eps       ncg     rms          rms(c)
DAV:   1    -0.387028245837E+02   -0.49125E-05   -0.17721E-04 10196   0.821E-02    0.775E-03
DAV:   2    -0.387028243119E+02    0.27179E-06   -0.92488E-06 10680   0.346E-02    0.361E-03
DAV:   3    -0.387028240791E+02    0.23279E-06   -0.94656E-07 12844   0.120E-02    0.182E-03
DAV:   4    -0.387028239896E+02    0.89513E-07   -0.20380E-07 11800   0.639E-03    0.602E-04
DAV:   5    -0.387028239764E+02    0.13205E-07   -0.56155E-08 10584   0.381E-03    0.238E-04
DAV:   6    -0.387028239748E+02    0.15452E-08   -0.13450E-08  5232   0.167E-03
 286 F= -.38702824E+02 E0= -.38702824E+02  d E =-.429975E-05
 ZBRENT: can't locate minimum, use default step
 trial-energy change:   -0.000004  1 .order   -0.000004   -0.000005   -0.000004
 step:   0.2262(harm=  0.4164)  dis= 0.00033  next Energy=   -38.702836 (dE=-0.168E-04)
 bond charge predicted
       N       E                     dE             d eps       ncg     rms          rms(c)
DAV:   1    -0.387028381888E+02   -0.14212E-04   -0.15923E-03 10192   0.246E-01    0.232E-02
DAV:   2    -0.387028354069E+02    0.27819E-05   -0.83201E-05 10684   0.104E-01    0.108E-02
DAV:   3    -0.387028337482E+02    0.16587E-05   -0.85585E-06 12832   0.373E-02    0.546E-03
DAV:   4    -0.387028331494E+02    0.59875E-06   -0.18748E-06 11716   0.201E-02    0.184E-03
DAV:   5    -0.387028330973E+02    0.52090E-07   -0.53419E-07 11908   0.118E-02    0.715E-04
DAV:   6    -0.387028330965E+02    0.86766E-09   -0.13652E-07 10592   0.509E-03    0.426E-04
DAV:   7    -0.387028330986E+02   -0.21018E-08   -0.31335E-08  8292   0.302E-03
 287 F= -.38702833E+02 E0= -.38702833E+02  d E =-.134235E-04
 curvature:  -0.53 expect dE=-0.130E-04 dE for cont linesearch -0.242E-05
 ZBRENT: increasing intervall
 opt :   0.5655  next Energy=   -38.702834 (dE=-0.142E-04)
 bond charge predicted
       N       E                     dE             d eps       ncg     rms          rms(c)
DAV:   1    -0.387028531042E+02   -0.20008E-04   -0.63694E-03 10192   0.493E-01    0.465E-02
DAV:   2    -0.387028416298E+02    0.11474E-04   -0.33359E-04 10684   0.208E-01    0.217E-02
DAV:   3    -0.387028354241E+02    0.62057E-05   -0.34214E-05 12860   0.732E-02    0.109E-02
DAV:   4    -0.387028332186E+02    0.22055E-05   -0.73975E-06 11724   0.389E-02    0.367E-03
DAV:   5    -0.387028330814E+02    0.13719E-06   -0.21001E-06 11904   0.233E-02    0.143E-03
DAV:   6    -0.387028330895E+02   -0.80654E-08   -0.53465E-07 10976   0.101E-02    0.853E-04
DAV:   7    -0.387028330966E+02   -0.71395E-08   -0.13647E-07 12680   0.597E-03    0.485E-04
DAV:   8    -0.387028331004E+02   -0.37917E-08   -0.32379E-08  7472   0.259E-03
 288 F= -.38702833E+02 E0= -.38702833E+02  d E =-.134253E-04
 curvature:  -0.18 expect dE=-0.295E-04 dE for cont linesearch -0.559E-06
 ZBRENT: bracketing found
 ZBRENT: interpolating
 opt :   0.4114  next Energy=   -38.702835 (dE=-0.157E-04)
 bond charge predicted
       N       E                     dE             d eps       ncg     rms          rms(c)
DAV:   1    -0.387028405045E+02   -0.74079E-05   -0.13113E-03 10192   0.223E-01    0.211E-02
DAV:   2    -0.387028378944E+02    0.26101E-05   -0.68506E-05 10676   0.942E-02    0.983E-03
DAV:   3    -0.387028369054E+02    0.98900E-06   -0.69673E-06 12876   0.330E-02    0.495E-03
DAV:   4    -0.387028365816E+02    0.32381E-06   -0.15061E-06 11844   0.177E-02    0.163E-03
DAV:   5    -0.387028366018E+02   -0.20199E-07   -0.42056E-07 11772   0.105E-02    0.638E-04
DAV:   6    -0.387028366119E+02   -0.10089E-07   -0.10811E-07 10452   0.447E-03    0.381E-04
DAV:   7    -0.387028366111E+02    0.78398E-09   -0.20569E-08  5844   0.270E-03
 289 F= -.38702837E+02 E0= -.38702837E+02  d E =-.169360E-04
 curvature:  -0.74 expect dE=-0.510E-04 dE for cont linesearch -0.964E-08
 trial: gam= 1.25441 g(F)=  0.641E-04 g(S)=  0.494E-05 ort = 0.194E-05 (trialstep = 0.697E-01)
 search vector abs. value=  0.526E-03
 bond charge predicted
       N       E                     dE             d eps       ncg     rms          rms(c)
DAV:   1    -0.387028409859E+02   -0.43740E-05   -0.48228E-04 10256   0.145E-01    0.146E-02
DAV:   2    -0.387028397297E+02    0.12562E-05   -0.33360E-05 10708   0.708E-02    0.665E-03
DAV:   3    -0.387028390844E+02    0.64533E-06   -0.32708E-06 13076   0.213E-02    0.336E-03
DAV:   4    -0.387028387973E+02    0.28705E-06   -0.55592E-07 11440   0.114E-02    0.105E-03
DAV:   5    -0.387028387694E+02    0.27903E-07   -0.18179E-07 11660   0.666E-03    0.361E-04
DAV:   6    -0.387028387711E+02   -0.16944E-08   -0.44294E-08  9088   0.279E-03
 290 F= -.38702839E+02 E0= -.38702839E+02  d E =-.216001E-05
 trial-energy change:   -0.000002  1 .order   -0.000003   -0.000005   -0.000002
 step:   0.1161(harm=  0.1161)  dis= 0.00021  next Energy=   -38.702841 (dE=-0.415E-05)
 bond charge predicted
       N       E                     dE             d eps       ncg     rms          rms(c)
DAV:   1    -0.387028405427E+02   -0.17733E-05   -0.21450E-04 10256   0.967E-02    0.980E-03
DAV:   2    -0.387028400074E+02    0.53530E-06   -0.14785E-05 10708   0.473E-02    0.442E-03
DAV:   3    -0.387028396889E+02    0.31857E-06   -0.14466E-06 12976   0.146E-02    0.224E-03
DAV:   4    -0.387028395470E+02    0.14185E-06   -0.25758E-07 11600   0.793E-03    0.686E-04
DAV:   5    -0.387028395317E+02    0.15324E-07   -0.80453E-08 11200   0.454E-03    0.239E-04
DAV:   6    -0.387028395324E+02   -0.67666E-09   -0.19265E-08  6172   0.186E-03
 291 F= -.38702840E+02 E0= -.38702840E+02  d E =-.292127E-05
 curvature:  -0.43 expect dE=-0.591E-05 dE for cont linesearch -0.687E-08
 trial: gam= 0.11377 g(F)=  0.899E-05 g(S)=  0.484E-05 ort = 0.291E-05 (trialstep = 0.789E-01)
 search vector abs. value=  0.213E-04
 bond charge predicted
       N       E                     dE             d eps       ncg     rms          rms(c)
DAV:   1    -0.387028407447E+02   -0.12131E-05   -0.23636E-05  9900   0.286E-02    0.273E-03
DAV:   2    -0.387028407055E+02    0.39208E-07   -0.80803E-07 10932   0.111E-02    0.152E-03
DAV:   3    -0.387028406521E+02    0.53426E-07   -0.13462E-07 12600   0.628E-03    0.666E-04
DAV:   4    -0.387028406403E+02    0.11756E-07   -0.33155E-08  7948   0.363E-03    0.210E-04
DAV:   5    -0.387028406381E+02    0.22592E-08   -0.13147E-08  5052   0.127E-03
 292 F= -.38702841E+02 E0= -.38702841E+02  d E =-.110573E-05
 ZBRENT: can't locate minimum, use default step
 trial-energy change:   -0.000001  1 .order   -0.000001   -0.000001   -0.000001
 step:   0.3158(harm=  2.9632)  dis= 0.00008  next Energy=   -38.702861 (dE=-0.210E-04)
 bond charge predicted
       N       E                     dE             d eps       ncg     rms          rms(c)
DAV:   1    -0.387028446389E+02   -0.39986E-05   -0.21207E-04  9900   0.848E-02    0.816E-03
DAV:   2    -0.387028441876E+02    0.45130E-06   -0.71668E-06 10932   0.314E-02    0.454E-03
DAV:   3    -0.387028438074E+02    0.38024E-06   -0.11920E-06 13720   0.166E-02    0.196E-03
DAV:   4    -0.387028437407E+02    0.66665E-07   -0.28005E-07 11664   0.927E-03    0.642E-04
DAV:   5    -0.387028437351E+02    0.55852E-08   -0.11023E-07 11692   0.242E-03    0.323E-04
DAV:   6    -0.387028437331E+02    0.20509E-08   -0.90817E-09  5244   0.111E-03
 293 F= -.38702844E+02 E0= -.38702844E+02  d E =-.420073E-05
 curvature:  -0.35 expect dE=-0.439E-05 dE for cont linesearch -0.254E-05
 ZBRENT: increasing intervall
 opt :   0.7894  next Energy=   -38.702849 (dE=-0.943E-05)
 bond charge predicted
       N       E                     dE             d eps       ncg     rms          rms(c)
DAV:   1    -0.387028526013E+02   -0.88662E-05   -0.84800E-04  9900   0.169E-01    0.163E-02
DAV:   2    -0.387028507203E+02    0.18810E-05   -0.28720E-05 10932   0.636E-02    0.911E-03
DAV:   3    -0.387028493072E+02    0.14131E-05   -0.47843E-06 13720   0.339E-02    0.392E-03
DAV:   4    -0.387028490739E+02    0.23332E-06   -0.11218E-06 11568   0.189E-02    0.127E-03
DAV:   5    -0.387028490699E+02    0.39936E-08   -0.43966E-07 11996   0.568E-03    0.635E-04
DAV:   6    -0.387028490652E+02    0.46930E-08   -0.47798E-08 10348   0.283E-03
 294 F= -.38702849E+02 E0= -.38702849E+02  d E =-.953284E-05
 curvature:  -0.72 expect dE=-0.138E-04 dE for cont linesearch -0.337E-05
 ZBRENT: increasing intervall
 opt :   1.7366  next Energy=   -38.702856 (dE=-0.166E-04)
 bond charge predicted
       N       E                     dE             d eps       ncg     rms          rms(c)
DAV:   1    -0.387028702947E+02   -0.21225E-04   -0.33919E-03  9900   0.339E-01    0.327E-02
DAV:   2    -0.387028626066E+02    0.76881E-05   -0.11483E-04 10932   0.127E-01    0.182E-02
DAV:   3    -0.387028571882E+02    0.54184E-05   -0.19110E-05 13784   0.676E-02    0.783E-03
DAV:   4    -0.387028563289E+02    0.85923E-06   -0.44688E-06 11608   0.381E-02    0.254E-03
DAV:   5    -0.387028563474E+02   -0.18507E-07   -0.17890E-06 12060   0.122E-02    0.127E-03
DAV:   6    -0.387028563350E+02    0.12477E-07   -0.20151E-07 11988   0.586E-03    0.740E-04
DAV:   7    -0.387028563389E+02   -0.38954E-08   -0.81053E-08 11960   0.388E-03
 295 F= -.38702856E+02 E0= -.38702856E+02  d E =-.168065E-04
 curvature:  -1.53 expect dE=-0.947E-04 dE for cont linesearch -0.191E-05
 ZBRENT: increasing intervall
 opt :   3.6311  next Energy=   -38.702857 (dE=-0.175E-04)
 bond charge predicted
       N       E                     dE             d eps       ncg     rms          rms(c)
DAV:   1    -0.387029110955E+02   -0.54760E-04   -0.13567E-02  9900   0.678E-01    0.653E-02
DAV:   2    -0.387028800167E+02    0.31079E-04   -0.45989E-04 10932   0.252E-01    0.364E-02
DAV:   3    -0.387028587763E+02    0.21240E-04   -0.76138E-05 13752   0.132E-01    0.156E-02
DAV:   4    -0.387028555162E+02    0.32601E-05   -0.17954E-05 11576   0.739E-02    0.513E-03
DAV:   5    -0.387028556432E+02   -0.12699E-06   -0.70606E-06 12004   0.209E-02    0.260E-03
DAV:   6    -0.387028555969E+02    0.46338E-07   -0.77491E-07 11908   0.110E-02    0.150E-03
DAV:   7    -0.387028556039E+02   -0.70468E-08   -0.34251E-07 15612   0.820E-03    0.874E-04
DAV:   8    -0.387028556040E+02   -0.45475E-10   -0.67151E-08 11212   0.344E-03
 296 F= -.38702856E+02 E0= -.38702856E+02  d E =-.160716E-04
 curvature:  -0.54 expect dE=-0.144E-03 dE for cont linesearch -0.456E-06
 ZBRENT: bracketing found
 ZBRENT: interpolating
 opt :   2.7784  next Energy=   -38.702857 (dE=-0.179E-04)
 bond charge predicted
       N       E                     dE             d eps       ncg     rms          rms(c)
DAV:   1    -0.387028700764E+02   -0.14473E-04   -0.27485E-03  9900   0.305E-01    0.294E-02
DAV:   2    -0.387028635742E+02    0.65022E-05   -0.92892E-05 10932   0.113E-01    0.164E-02
DAV:   3    -0.387028595818E+02    0.39924E-05   -0.15341E-05 13776   0.601E-02    0.703E-03
DAV:   4    -0.387028590078E+02    0.57406E-06   -0.35762E-06 11632   0.342E-02    0.226E-03
DAV:   5    -0.387028590801E+02   -0.72372E-07   -0.14130E-06 11964   0.107E-02    0.113E-03
DAV:   6    -0.387028590795E+02    0.67757E-09   -0.15896E-07 12016   0.521E-03    0.654E-04
DAV:   7    -0.387028590769E+02    0.25320E-08   -0.59720E-08 10396   0.353E-03
 297 F= -.38702859E+02 E0= -.38702859E+02  d E =-.195446E-04
 curvature:  -2.15 expect dE=-0.328E-03 dE for cont linesearch -0.415E-08
 trial: gam=11.10316 g(F)=  0.146E-03 g(S)=  0.711E-05 ort = 0.203E-06 (trialstep = 0.474E-02)
 search vector abs. value=  0.278E-02
 bond charge predicted
       N       E                     dE             d eps       ncg     rms          rms(c)
DAV:   1    -0.387028609880E+02   -0.19086E-05   -0.11289E-05  9888   0.202E-02    0.184E-03
DAV:   2    -0.387028609745E+02    0.13558E-07   -0.44307E-07 10944   0.817E-03    0.101E-03
DAV:   3    -0.387028609467E+02    0.27742E-07   -0.61206E-08 11264   0.442E-03    0.476E-04
DAV:   4    -0.387028609392E+02    0.74815E-08   -0.13455E-08  5016   0.268E-03
 298 F= -.38702861E+02 E0= -.38702861E+02  d E =-.186232E-05
 ZBRENT: can't locate minimum, use default step
 trial-energy change:   -0.000002  1 .order   -0.000001   -0.000001   -0.000001
 step:   0.0189(harm=  0.0918)  dis= 0.00009  next Energy=   -38.702866 (dE=-0.711E-05)
 bond charge predicted
       N       E                     dE             d eps       ncg     rms          rms(c)
DAV:   1    -0.387028632374E+02   -0.22907E-05   -0.10117E-04  9892   0.597E-02    0.556E-03
DAV:   2    -0.387028630792E+02    0.15820E-06   -0.38865E-06 11004   0.234E-02    0.301E-03
DAV:   3    -0.387028629104E+02    0.16884E-06   -0.52820E-07 13524   0.106E-02    0.139E-03
DAV:   4    -0.387028628685E+02    0.41886E-07   -0.11166E-07 11388   0.648E-03    0.431E-04
DAV:   5    -0.387028628646E+02    0.39008E-08   -0.46103E-08  9136   0.235E-03
 299 F= -.38702863E+02 E0= -.38702863E+02  d E =-.378766E-05
 curvature:  -0.25 expect dE=-0.259E-04 dE for cont linesearch -0.139E-05
 ZBRENT: increasing intervall
 opt :   0.0474  next Energy=   -38.702866 (dE=-0.672E-05)
 bond charge predicted
       N       E                     dE             d eps       ncg     rms          rms(c)
DAV:   1    -0.387028644577E+02   -0.15892E-05   -0.40441E-04  9884   0.119E-01    0.111E-02
DAV:   2    -0.387028637935E+02    0.66418E-06   -0.15630E-05 11000   0.465E-02    0.602E-03
DAV:   3    -0.387028632076E+02    0.58587E-06   -0.20698E-06 13416   0.202E-02    0.277E-03
DAV:   4    -0.387028630656E+02    0.14202E-06   -0.42715E-07 11980   0.120E-02    0.830E-04
DAV:   5    -0.387028630622E+02    0.34397E-08   -0.17622E-07 11116   0.441E-03    0.380E-04
DAV:   6    -0.387028630622E+02   -0.46384E-10   -0.23074E-08  7128   0.219E-03
 300 F= -.38702863E+02 E0= -.38702863E+02  d E =-.398528E-05
 curvature:  -0.52 expect dE=-0.273E-04 dE for cont linesearch -0.129E-05
 ZBRENT: increasing intervall
 opt :   0.1042  next Energy=   -38.702865 (dE=-0.632E-05)
 writing wavefunctions
Thu Jan  6 01:34:27 CST 2022
