Wed Jan  5 23:57:27 CST 2022
 running on   48 total cores
 distrk:  each k-point on   48 cores,    1 groups
 distr:  one band on   24 cores,    2 groups
 using from now: INCAR     
 vasp.5.3.5 31Mar14 (build Jan 11 2016 19:50:55) complex                        
  
 POSCAR found type information on POSCAR  Zn Ga N  O 
 POSCAR found :  4 types and       8 ions
 scaLAPACK will be used

 ----------------------------------------------------------------------------- 
|                                                                             |
|           W    W    AA    RRRRR   N    N  II  N    N   GGGG   !!!           |
|           W    W   A  A   R    R  NN   N  II  NN   N  G    G  !!!           |
|           W    W  A    A  R    R  N N  N  II  N N  N  G       !!!           |
|           W WW W  AAAAAA  RRRRR   N  N N  II  N  N N  G  GGG   !            |
|           WW  WW  A    A  R   R   N   NN  II  N   NN  G    G                |
|           W    W  A    A  R    R  N    N  II  N    N   GGGG   !!!           |
|                                                                             |
|      For optimal performance we recommend to set                            |
|        NCORE= 4 - approx SQRT( number of cores)                             |
|      NCORE specifies how many cores store one orbital (NPAR=cpu/NCORE).     |
|      This setting can  greatly improve the performance of VASP for DFT.     |
|      The default, NPAR=number of cores might be grossly inefficient         |
|      on modern multi-core architectures or massively parallel machines.     |
|      Do your own testing !!!!                                               |
|      Unfortunately you need to use the default for GW and RPA calculations. |
|      (for HF NCORE is supported but not extensively tested yet)             |
|                                                                             |
 ----------------------------------------------------------------------------- 

 LDA part: xc-table for Pade appr. of Perdew
 POSCAR, INCAR and KPOINTS ok, starting setup
 WARNING: small aliasing (wrap around) errors must be expected
 FFT: planning ...
 WAVECAR not read
 entering main loop
       N       E                     dE             d eps       ncg     rms          rms(c)
DAV:   1     0.503159086138E+03    0.50316E+03   -0.32160E+04  9896   0.169E+03
DAV:   2     0.104170159065E+03   -0.39899E+03   -0.38978E+03 11856   0.329E+02
DAV:   3    -0.914546145444E+01   -0.11332E+03   -0.10946E+03 13388   0.127E+02
DAV:   4    -0.219839788232E+02   -0.12839E+02   -0.12246E+02 13048   0.375E+01
DAV:   5    -0.224869930835E+02   -0.50301E+00   -0.49206E+00 11592   0.761E+00    0.195E+01
DAV:   6    -0.333466120890E+02   -0.10860E+02   -0.17883E+02 11784   0.319E+01    0.445E+01
DAV:   7    -0.221988453654E+02    0.11148E+02   -0.16098E+02 11816   0.113E+01    0.208E+01
DAV:   8    -0.131719767780E+02    0.90269E+01   -0.17110E+01 12484   0.948E+00    0.156E+01
DAV:   9    -0.128835007357E+02    0.28848E+00   -0.83061E+00 13784   0.242E+00    0.193E+01
DAV:  10    -0.104480619709E+02    0.24354E+01   -0.46239E+00 11672   0.174E+00    0.125E+01
DAV:  11    -0.102835248131E+02    0.16454E+00   -0.55421E-01 13172   0.803E-01    0.468E+00
DAV:  12    -0.102830896993E+02    0.43511E-03   -0.18348E-01 12768   0.336E-01    0.569E+00
DAV:  13    -0.149746961607E+02   -0.46916E+01   -0.13141E+01 14168   0.287E+00    0.290E+01
DAV:  14    -0.148911879431E+02    0.83508E-01   -0.17118E-01 12632   0.121E+00    0.287E+01
DAV:  15    -0.158862183224E+02   -0.99503E+00   -0.27022E-01 12520   0.131E+00    0.283E+01
DAV:  16    -0.172121146318E+02   -0.13259E+01   -0.36419E-01 12084   0.189E+00    0.284E+01
DAV:  17    -0.126945590210E+02    0.45176E+01   -0.89980E-01 12512   0.148E+00    0.266E+01
DAV:  18    -0.113755700956E+02    0.13190E+01   -0.26614E-01 14776   0.651E-01    0.247E+01
DAV:  19    -0.108343241584E+02    0.54125E+00   -0.62392E-02 13608   0.349E-01    0.229E+01
DAV:  20    -0.105895421993E+02    0.24478E+00   -0.78241E-02 12144   0.208E-01    0.207E+01
DAV:  21    -0.962936308378E+01    0.96018E+00   -0.48034E-01 14180   0.728E-01    0.121E+01
DAV:  22    -0.946148370459E+01    0.16788E+00   -0.51106E-02 12232   0.417E-01    0.991E+00
DAV:  23    -0.947589444833E+01   -0.14411E-01   -0.16435E-01 13912   0.333E-01    0.120E+01
DAV:  24    -0.954651799794E+01   -0.70624E-01   -0.40996E-02 12868   0.246E-01    0.139E+01
DAV:  25    -0.926335369643E+01    0.28316E+00   -0.40944E-01 14236   0.385E-01    0.517E+00
DAV:  26    -0.942784519336E+01   -0.16449E+00   -0.43695E-01 12024   0.520E-01    0.125E+01
DAV:  27    -0.926911773783E+01    0.15873E+00   -0.16991E-01 14604   0.323E-01    0.702E+00
DAV:  28    -0.922873657791E+01    0.40381E-01   -0.49466E-02 13772   0.226E-01    0.415E+00
DAV:  29    -0.920728498633E+01    0.21452E-01   -0.77421E-02 13960   0.198E-01    0.778E-01
DAV:  30    -0.920812427112E+01   -0.83928E-03   -0.56840E-03 11488   0.153E-01    0.110E+00
DAV:  31    -0.920607703917E+01    0.20472E-02   -0.11005E-02 14152   0.129E-01    0.871E-01
DAV:  32    -0.920670079263E+01   -0.62375E-03   -0.67614E-04 13864   0.699E-02    0.103E+00
DAV:  33    -0.920698857126E+01   -0.28778E-03   -0.10122E-03 13544   0.380E-02    0.113E+00
DAV:  34    -0.920503286811E+01    0.19557E-02   -0.40657E-03 12460   0.562E-02    0.346E-01
DAV:  35    -0.920500816762E+01    0.24700E-04   -0.28725E-04 11956   0.422E-02    0.260E-01
DAV:  36    -0.920500980211E+01   -0.16345E-05   -0.12408E-03 14048   0.282E-02    0.268E-01
DAV:  37    -0.920495706607E+01    0.52736E-04   -0.11821E-03 12460   0.359E-02    0.227E-01
DAV:  38    -0.920508895748E+01   -0.13189E-03   -0.33411E-04 13640   0.213E-02    0.382E-01
DAV:  39    -0.920490828110E+01    0.18068E-03   -0.23541E-04 12812   0.168E-02    0.149E-01
DAV:  40    -0.920488472111E+01    0.23560E-04   -0.38218E-05 14140   0.868E-03    0.678E-02
DAV:  41    -0.920487840879E+01    0.63123E-05   -0.13126E-05 10992   0.574E-03    0.163E-02
DAV:  42    -0.920487970376E+01   -0.12950E-05   -0.88014E-06 12304   0.397E-03    0.302E-02
DAV:  43    -0.920487795738E+01    0.17464E-05   -0.22921E-06 10692   0.334E-03    0.135E-02
DAV:  44    -0.920487782421E+01    0.13317E-06   -0.34438E-06 12224   0.209E-03    0.115E-02
DAV:  45    -0.920487767002E+01    0.15419E-06   -0.33082E-07  9752   0.143E-03    0.508E-03
DAV:  46    -0.920487764436E+01    0.25665E-07   -0.98782E-08  8360   0.501E-04    0.192E-03
DAV:  47    -0.920487765275E+01   -0.83892E-08   -0.15720E-08  6180   0.364E-04
   1 F= -.92048777E+01 E0= -.86704621E+01  d E =-.920488E+01
 curvature:   0.00 expect dE= 0.000E+00 dE for cont linesearch  0.000E+00
 trial: gam= 0.00000 g(F)=  0.205E-01 g(S)=  0.455E+00 ort = 0.000E+00 (trialstep = 0.100E+01)
 search vector abs. value=  0.476E+00
 bond charge predicted
       N       E                     dE             d eps       ncg     rms          rms(c)
DAV:   1    -0.187198971017E+02   -0.95150E+01   -0.12262E+02 10088   0.776E+01    0.314E+01
DAV:   2    -0.776443975875E+02   -0.58925E+02   -0.61709E+02 12544   0.615E+01    0.413E+01
DAV:   3    -0.264748431999E+02    0.51170E+02   -0.78141E+01 13184   0.202E+01    0.238E+01
DAV:   4    -0.131221931355E+02    0.13353E+02   -0.36961E+01 12132   0.180E+01    0.203E+01
DAV:   5    -0.111173220160E+02    0.20049E+01   -0.17785E+01 14268   0.557E+00    0.170E+01
DAV:   6    -0.173474062909E+02   -0.62301E+01   -0.77356E+01 13016   0.498E+00    0.327E+01
DAV:   7    -0.132285801284E+02    0.41188E+01   -0.34635E+01 12572   0.241E+00    0.298E+01
DAV:   8    -0.145918734115E+02   -0.13633E+01   -0.89003E+01 11656   0.593E+00    0.182E+01
DAV:   9    -0.122598259197E+02    0.23320E+01   -0.10961E+00 10664   0.293E+00    0.159E+01
DAV:  10    -0.981925654458E+01    0.24406E+01   -0.12007E+00 13292   0.275E+00    0.635E+00
DAV:  11    -0.998614528780E+01   -0.16689E+00   -0.98786E-01 11320   0.112E+00    0.102E+01
DAV:  12    -0.996654476763E+01    0.19601E-01   -0.42880E+00 14184   0.918E-01    0.134E+01
DAV:  13    -0.972832378490E+01    0.23822E+00   -0.13771E+00 12896   0.717E-01    0.221E+00
DAV:  14    -0.981006217822E+01   -0.81738E-01   -0.54798E-01 12544   0.480E-01    0.844E+00
DAV:  15    -0.972041640630E+01    0.89646E-01   -0.31093E-01 12292   0.397E-01    0.241E+00
DAV:  16    -0.971760594778E+01    0.28105E-02   -0.78556E-02 13068   0.257E-01    0.170E+00
DAV:  17    -0.971482387999E+01    0.27821E-02   -0.10833E-02 11476   0.162E-01    0.926E-01
DAV:  18    -0.971433735353E+01    0.48653E-03   -0.96643E-03 12536   0.117E-01    0.577E-01
DAV:  19    -0.971406698702E+01    0.27037E-03   -0.29398E-03 11820   0.745E-02    0.370E-01
DAV:  20    -0.971405893766E+01    0.80494E-05   -0.80626E-04 14104   0.396E-02    0.314E-01
DAV:  21    -0.971392811147E+01    0.13083E-03   -0.35082E-04 12108   0.224E-02    0.799E-02
DAV:  22    -0.971393476800E+01   -0.66565E-05   -0.13448E-04 13748   0.137E-02    0.101E-01
DAV:  23    -0.971393435420E+01    0.41380E-06   -0.19131E-04 11920   0.154E-02    0.972E-02
DAV:  24    -0.971391963911E+01    0.14715E-04   -0.47726E-05 10212   0.765E-03    0.152E-02
DAV:  25    -0.971391915824E+01    0.48087E-06   -0.31688E-06 11664   0.347E-03    0.962E-03
DAV:  26    -0.971391893865E+01    0.21959E-06   -0.40096E-07 10340   0.164E-03    0.881E-03
DAV:  27    -0.971391882587E+01    0.11278E-06   -0.18181E-06 11728   0.147E-03    0.104E-02
DAV:  28    -0.971391866741E+01    0.15846E-06   -0.22309E-07  7988   0.928E-04    0.457E-03
DAV:  29    -0.971391877916E+01   -0.11176E-06   -0.95176E-07  9728   0.834E-04    0.996E-03
DAV:  30    -0.971391864329E+01    0.13588E-06   -0.68742E-07  8008   0.827E-04    0.207E-03
DAV:  31    -0.971391865299E+01   -0.97043E-08   -0.11721E-08  6104   0.375E-04
   2 F= -.97139187E+01 E0= -.92062905E+01  d E =-.509041E+00
 ZBRENT: can't locate minimum, use default step
 trial-energy change:   -0.509041  1 .order   -0.502429   -0.475959   -0.528900
 step:   4.0000(harm=  4.0000)  dis= 0.05231  next Energy=   -11.094045 (dE=-0.189E+01)
 bond charge predicted
       N       E                     dE             d eps       ncg     rms          rms(c)
DAV:   1    -0.153609494501E+03   -0.14390E+03   -0.12615E+03 10452   0.229E+02    0.131E+02
DAV:   2    -0.361268705175E+03   -0.20766E+03   -0.66839E+03 17492   0.320E+02    0.251E+02
DAV:   3    -0.163275728916E+03    0.19799E+03   -0.74448E+02 13000   0.138E+02    0.881E+01
DAV:   4    -0.106082315212E+02    0.15267E+03   -0.11030E+03 14296   0.916E+01    0.292E+01
DAV:   5    -0.242416223669E+02   -0.13633E+02   -0.36802E+02 12196   0.784E+01    0.314E+01
DAV:   6    -0.257041399614E+02   -0.14625E+01   -0.11047E+02 11196   0.197E+01    0.292E+01
DAV:   7    -0.234493823927E+02    0.22548E+01   -0.35422E+01 12284   0.126E+01    0.287E+01
DAV:   8    -0.201811176271E+02    0.32683E+01   -0.14976E+01 11520   0.581E+00    0.287E+01
DAV:   9    -0.195390102751E+02    0.64211E+00   -0.27345E+01 13864   0.342E+00    0.296E+01
DAV:  10    -0.190382004012E+02    0.50081E+00   -0.17839E+01 10992   0.169E+01    0.330E+01
DAV:  11    -0.147220611103E+02    0.43161E+01   -0.72759E+00 14392   0.929E+00    0.188E+01
DAV:  12    -0.143689976717E+02    0.35306E+00   -0.27699E+01 11648   0.121E+01    0.182E+01
DAV:  13    -0.158300155762E+02   -0.14610E+01   -0.11469E+01 12812   0.104E+01    0.173E+01
DAV:  14    -0.147481133911E+02    0.10819E+01   -0.45600E+00 10824   0.423E+00    0.150E+01
DAV:  15    -0.140530766224E+02    0.69504E+00   -0.40309E+00 13324   0.228E+00    0.130E+01
DAV:  16    -0.133827587052E+02    0.67032E+00   -0.15201E+00 12800   0.119E+00    0.107E+01
DAV:  17    -0.126487636517E+02    0.73400E+00   -0.51590E-01 11264   0.137E+00    0.907E+00
DAV:  18    -0.121973017235E+02    0.45146E+00   -0.65145E-02 12592   0.760E-01    0.804E+00
DAV:  19    -0.119157866827E+02    0.28152E+00   -0.55046E-01 13524   0.124E+00    0.795E+00
DAV:  20    -0.119620833572E+02   -0.46297E-01   -0.31079E+00 13320   0.938E-01    0.668E+00
DAV:  21    -0.118731363230E+02    0.88947E-01   -0.35896E-01 13620   0.148E+00    0.662E+00
DAV:  22    -0.118117180654E+02    0.61418E-01   -0.19437E-01 12784   0.540E-01    0.241E+00
DAV:  23    -0.118210745342E+02   -0.93565E-02   -0.32258E-02 13664   0.374E-01    0.364E+00
DAV:  24    -0.117994042369E+02    0.21670E-01   -0.54347E-02 12700   0.223E-01    0.143E+00
DAV:  25    -0.118059494994E+02   -0.65453E-02   -0.13150E-02 13000   0.175E-01    0.242E+00
DAV:  26    -0.118002592179E+02    0.56903E-02   -0.16940E-01 12952   0.301E-01    0.153E+00
DAV:  27    -0.117969142645E+02    0.33450E-02   -0.46235E-02 14024   0.192E-01    0.876E-01
DAV:  28    -0.117962271088E+02    0.68716E-03   -0.21827E-02 14256   0.101E-01    0.589E-01
DAV:  29    -0.117957434423E+02    0.48367E-03   -0.10005E-03 11840   0.433E-02    0.292E-01
DAV:  30    -0.117955781174E+02    0.16532E-03   -0.83944E-04 12620   0.300E-02    0.321E-02
DAV:  31    -0.117956923583E+02   -0.11424E-03   -0.79496E-04 13236   0.236E-02    0.264E-01
DAV:  32    -0.117955861541E+02    0.10620E-03   -0.12799E-03 14240   0.227E-02    0.106E-01
DAV:  33    -0.117955759700E+02    0.10184E-04   -0.13132E-05 10392   0.882E-03    0.769E-02
DAV:  34    -0.117955662740E+02    0.96960E-05   -0.80997E-05 12848   0.691E-03    0.195E-02
DAV:  35    -0.117955669465E+02   -0.67251E-06   -0.18860E-05 11004   0.419E-03    0.278E-02
DAV:  36    -0.117955658464E+02    0.11001E-05   -0.24973E-06  8964   0.172E-03    0.129E-02
DAV:  37    -0.117955655389E+02    0.30750E-06   -0.21614E-06 10288   0.122E-03    0.253E-03
DAV:  38    -0.117955655054E+02    0.33483E-07   -0.12704E-07  7748   0.669E-04    0.116E-03
DAV:  39    -0.117955654990E+02    0.64138E-08   -0.78084E-08  6080   0.370E-04
   3 F= -.11795565E+02 E0= -.11433698E+02  d E =-.259069E+01
 curvature:  -3.11 expect dE=-0.403E+01 dE for cont linesearch -0.398E+01
 ZBRENT: increasing intervall
 opt :  10.0000  next Energy=   -17.999618 (dE=-0.879E+01)
 bond charge predicted
       N       E                     dE             d eps       ncg     rms          rms(c)
DAV:   1    -0.799286826326E+03   -0.78749E+03   -0.80639E+03 12200   0.427E+02    0.238E+02
DAV:   2    -0.451999247091E+03    0.34729E+03   -0.21268E+04 16548   0.109E+03    0.197E+02
DAV:   3    -0.120042730168E+03    0.33196E+03   -0.25795E+03 15920   0.245E+02    0.492E+01
DAV:   4    -0.644505371080E+02    0.55592E+02   -0.78312E+02 12044   0.148E+02    0.539E+01
DAV:   5    -0.421829002346E+02    0.22268E+02   -0.15100E+02 13112   0.543E+01    0.476E+01
DAV:   6    -0.327173748959E+02    0.94655E+01   -0.65327E+01 11736   0.257E+01    0.376E+01
DAV:   7    -0.286759122399E+02    0.40415E+01   -0.47717E+01 13108   0.155E+01    0.323E+01
DAV:   8    -0.267022287408E+02    0.19737E+01   -0.66275E+01 12244   0.301E+01    0.298E+01
DAV:   9    -0.223866254798E+02    0.43156E+01   -0.70792E+01 13344   0.181E+01    0.134E+01
DAV:  10    -0.222834541668E+02    0.10317E+00   -0.10595E+01 11764   0.220E+01    0.761E+00
DAV:  11    -0.217668464093E+02    0.51661E+00   -0.34404E+00 14664   0.973E+00    0.385E+00
DAV:  12    -0.216447594174E+02    0.12209E+00   -0.10100E+00 12444   0.397E+00    0.364E+00
DAV:  13    -0.215438752540E+02    0.10088E+00   -0.38922E-01 11188   0.404E+00    0.148E+00
DAV:  14    -0.215347091669E+02    0.91661E-02   -0.90860E-02 13272   0.119E+00    0.350E-01
DAV:  15    -0.215367061715E+02   -0.19970E-02   -0.10241E-02 11340   0.592E-01    0.174E-01
DAV:  16    -0.215379978547E+02   -0.12917E-02   -0.53053E-03 12832   0.467E-01    0.164E-01
DAV:  17    -0.215380714774E+02   -0.73623E-04   -0.94305E-04 10772   0.198E-01    0.905E-02
DAV:  18    -0.215380564224E+02    0.15055E-04   -0.26278E-04 11504   0.935E-02    0.422E-02
DAV:  19    -0.215380649669E+02   -0.85446E-05   -0.74810E-05 11640   0.553E-02    0.158E-02
DAV:  20    -0.215380685553E+02   -0.35883E-05   -0.20188E-05 13184   0.244E-02    0.851E-03
DAV:  21    -0.215380698565E+02   -0.13012E-05   -0.10195E-05 12400   0.154E-02    0.613E-03
DAV:  22    -0.215380696481E+02    0.20839E-06   -0.20629E-06 12288   0.643E-03    0.173E-03
DAV:  23    -0.215380694851E+02    0.16301E-06   -0.33357E-07 10800   0.374E-03    0.121E-03
DAV:  24    -0.215380694665E+02    0.18595E-07   -0.12936E-07 10984   0.256E-03    0.546E-04
DAV:  25    -0.215380694848E+02   -0.18321E-07   -0.25867E-08  7152   0.105E-03    0.148E-04
DAV:  26    -0.215380694946E+02   -0.97334E-08   -0.30566E-09  6092   0.638E-04
   4 F= -.21538069E+02 E0= -.21491646E+02  d E =-.123332E+02
 curvature:  -4.84 expect dE=-0.351E+02 dE for cont linesearch -0.343E+02
 ZBRENT: increasing intervall
 opt :  22.0000  next Energy=   -56.257708 (dE=-0.471E+02)
 bond charge predicted
       N       E                     dE             d eps       ncg     rms          rms(c)
 ERROR FEXCP: supplied Exchange-correletion table
    is too small, maximal index :        5632
Thu Jan  6 00:23:33 CST 2022
