Thu Jan  6 03:07:40 CST 2022
 running on   48 total cores
 distrk:  each k-point on   48 cores,    1 groups
 distr:  one band on   24 cores,    2 groups
 using from now: INCAR     
 vasp.5.3.5 31Mar14 (build Jan 11 2016 19:50:55) complex                        
  
 POSCAR found type information on POSCAR  Zn Ga N  O 
 POSCAR found :  4 types and       8 ions
 scaLAPACK will be used

 ----------------------------------------------------------------------------- 
|                                                                             |
|           W    W    AA    RRRRR   N    N  II  N    N   GGGG   !!!           |
|           W    W   A  A   R    R  NN   N  II  NN   N  G    G  !!!           |
|           W    W  A    A  R    R  N N  N  II  N N  N  G       !!!           |
|           W WW W  AAAAAA  RRRRR   N  N N  II  N  N N  G  GGG   !            |
|           WW  WW  A    A  R   R   N   NN  II  N   NN  G    G                |
|           W    W  A    A  R    R  N    N  II  N    N   GGGG   !!!           |
|                                                                             |
|      For optimal performance we recommend to set                            |
|        NCORE= 4 - approx SQRT( number of cores)                             |
|      NCORE specifies how many cores store one orbital (NPAR=cpu/NCORE).     |
|      This setting can  greatly improve the performance of VASP for DFT.     |
|      The default, NPAR=number of cores might be grossly inefficient         |
|      on modern multi-core architectures or massively parallel machines.     |
|      Do your own testing !!!!                                               |
|      Unfortunately you need to use the default for GW and RPA calculations. |
|      (for HF NCORE is supported but not extensively tested yet)             |
|                                                                             |
 ----------------------------------------------------------------------------- 

 LDA part: xc-table for Pade appr. of Perdew
 POSCAR, INCAR and KPOINTS ok, starting setup
 WARNING: small aliasing (wrap around) errors must be expected
 FFT: planning ...
 WAVECAR not read
 entering main loop
       N       E                     dE             d eps       ncg     rms          rms(c)
DAV:   1     0.904620924098E+03    0.90462E+03   -0.42169E+04 10276   0.343E+03
DAV:   2     0.139445705352E+03   -0.76518E+03   -0.73398E+03  9880   0.797E+02
DAV:   3    -0.341522721168E+02   -0.17360E+03   -0.16913E+03 10984   0.272E+02
DAV:   4    -0.490244327725E+02   -0.14872E+02   -0.14694E+02 12240   0.811E+01
DAV:   5    -0.494988358158E+02   -0.47440E+00   -0.47220E+00 12548   0.145E+01    0.173E+01
DAV:   6    -0.413703649396E+02    0.81285E+01   -0.22509E+01 18956   0.815E+01    0.828E+00
DAV:   7    -0.421023890130E+02   -0.73202E+00   -0.92503E+00 10700   0.210E+01    0.569E+00
DAV:   8    -0.420226466762E+02    0.79742E-01   -0.12821E+00 15540   0.110E+01    0.245E+00
DAV:   9    -0.419751224047E+02    0.47524E-01   -0.19783E-01 14340   0.655E+00    0.920E-01
DAV:  10    -0.419683203493E+02    0.68021E-02   -0.76032E-02 13508   0.229E+00    0.351E-01
DAV:  11    -0.419688078553E+02   -0.48751E-03   -0.12447E-02 12868   0.103E+00    0.987E-02
DAV:  12    -0.419690871233E+02   -0.27927E-03   -0.18140E-03 13008   0.605E-01    0.571E-02
DAV:  13    -0.419691560764E+02   -0.68953E-04   -0.41333E-04 10812   0.232E-01    0.436E-02
DAV:  14    -0.419691749717E+02   -0.18895E-04   -0.14847E-04 13232   0.985E-02    0.167E-02
DAV:  15    -0.419691770763E+02   -0.21046E-05   -0.16914E-05 12656   0.556E-02    0.767E-03
DAV:  16    -0.419691786234E+02   -0.15471E-05   -0.70909E-06 11920   0.281E-02    0.298E-03
DAV:  17    -0.419691786446E+02   -0.21249E-07   -0.14069E-06 13120   0.137E-02    0.209E-03
DAV:  18    -0.419691786361E+02    0.85238E-08   -0.26668E-07 11672   0.520E-03    0.141E-03
DAV:  19    -0.419691786223E+02    0.13745E-07   -0.11089E-07 12352   0.327E-03    0.373E-04
DAV:  20    -0.419691785914E+02    0.30943E-07   -0.15083E-08  8360   0.149E-03    0.299E-04
DAV:  21    -0.419691785839E+02    0.74674E-08   -0.54152E-09  6164   0.735E-04
   1 F= -.41969179E+02 E0= -.41968474E+02  d E =-.419692E+02
 curvature:   0.00 expect dE= 0.000E+00 dE for cont linesearch  0.000E+00
 trial: gam= 0.00000 g(F)=  0.174E-04 g(S)=  0.179E-02 ort = 0.000E+00 (trialstep = 0.100E+01)
 search vector abs. value=  0.181E-02
 bond charge predicted
       N       E                     dE             d eps       ncg     rms          rms(c)
DAV:   1    -0.419793663025E+02   -0.10188E-01   -0.21167E-01 13048   0.588E+00    0.708E-01
DAV:   2    -0.419722195748E+02    0.71467E-02   -0.37476E-02 12412   0.323E+00    0.326E-01
DAV:   3    -0.419705165248E+02    0.17030E-02   -0.30977E-03 15324   0.740E-01    0.149E-01
DAV:   4    -0.419700142740E+02    0.50225E-03   -0.71685E-04 15696   0.346E-01    0.276E-02
DAV:   5    -0.419700303734E+02   -0.16099E-04   -0.36363E-04 10712   0.174E-01    0.196E-02
DAV:   6    -0.419700301818E+02    0.19156E-06   -0.33378E-05 14448   0.595E-02    0.111E-02
DAV:   7    -0.419700303079E+02   -0.12606E-06   -0.93245E-06 13636   0.333E-02    0.775E-03
DAV:   8    -0.419700303794E+02   -0.71457E-07   -0.23406E-06 12448   0.184E-02    0.218E-03
DAV:   9    -0.419700303769E+02    0.25070E-08   -0.62180E-07 13128   0.754E-03    0.857E-04
DAV:  10    -0.419700303819E+02   -0.50291E-08   -0.19170E-07 10884   0.337E-03    0.712E-04
DAV:  11    -0.419700304132E+02   -0.31327E-07   -0.17707E-08  7756   0.251E-03    0.376E-04
DAV:  12    -0.419700304382E+02   -0.25023E-07   -0.71440E-09  6032   0.104E-03    0.140E-04
DAV:  13    -0.419700304388E+02   -0.53842E-09   -0.35973E-09  5844   0.420E-04
   2 F= -.41970030E+02 E0= -.41969261E+02  d E =-.851855E-03
 trial-energy change:   -0.000852  1 .order   -0.000854   -0.001806    0.000097
 step:   0.9491(harm=  0.9491)  dis= 0.00046  next Energy=   -41.970036 (dE=-0.857E-03)
 bond charge predicted
       N       E                     dE             d eps       ncg     rms          rms(c)
DAV:   1    -0.419700565519E+02   -0.26114E-04   -0.54503E-04 13044   0.297E-01    0.360E-02
DAV:   2    -0.419700380645E+02    0.18487E-04   -0.96869E-05 12360   0.165E-01    0.165E-02
DAV:   3    -0.419700339996E+02    0.40649E-05   -0.79525E-06 15292   0.377E-02    0.755E-03
DAV:   4    -0.419700329118E+02    0.10877E-05   -0.18413E-06 15688   0.175E-02    0.138E-03
DAV:   5    -0.419700329832E+02   -0.71383E-07   -0.93544E-07 10700   0.880E-03    0.968E-04
DAV:   6    -0.419700329627E+02    0.20478E-07   -0.84318E-08 13156   0.295E-03    0.547E-04
DAV:   7    -0.419700329518E+02    0.10986E-07   -0.20520E-08  7112   0.172E-03    0.374E-04
DAV:   8    -0.419700329331E+02    0.18636E-07   -0.66916E-09  5832   0.119E-03    0.122E-04
DAV:   9    -0.419700329311E+02    0.20532E-08   -0.20538E-09  5600   0.599E-04
   3 F= -.41970033E+02 E0= -.41969267E+02  d E =-.854347E-03
 curvature:  -0.47 expect dE=-0.230E-03 dE for cont linesearch -0.123E-09
 trial: gam= 0.26824 g(F)=  0.215E-03 g(S)=  0.268E-03 ort =-0.684E-06 (trialstep = 0.990E+00)
 search vector abs. value=  0.613E-03
 bond charge predicted
       N       E                     dE             d eps       ncg     rms          rms(c)
DAV:   1    -0.419712969312E+02   -0.12640E-02   -0.71686E-02 10888   0.206E+00    0.259E-01
DAV:   2    -0.419706657829E+02    0.63115E-03   -0.58299E-03 12328   0.109E+00    0.139E-01
DAV:   3    -0.419704011378E+02    0.26465E-03   -0.54870E-04 14380   0.303E-01    0.598E-02
DAV:   4    -0.419703372612E+02    0.63877E-04   -0.13789E-04 13216   0.160E-01    0.948E-03
DAV:   5    -0.419703406728E+02   -0.34116E-05   -0.48379E-05 10728   0.569E-02    0.596E-03
DAV:   6    -0.419703405572E+02    0.11565E-06   -0.22005E-06 13428   0.224E-02    0.366E-03
DAV:   7    -0.419703404578E+02    0.99361E-07   -0.52459E-07 12608   0.143E-02    0.175E-03
DAV:   8    -0.419703404080E+02    0.49847E-07   -0.16907E-07 12700   0.652E-03    0.446E-04
DAV:   9    -0.419703404049E+02    0.31082E-08   -0.48593E-08 10320   0.233E-03
   4 F= -.41970340E+02 E0= -.41969585E+02  d E =-.307474E-03
 trial-energy change:   -0.000307  1 .order   -0.000301   -0.000479   -0.000123
 step:   1.2883(harm=  1.3321)  dis= 0.00226  next Energy=   -41.970359 (dE=-0.326E-03)
 bond charge predicted
       N       E                     dE             d eps       ncg     rms          rms(c)
DAV:   1    -0.419704515315E+02   -0.11112E-03   -0.65247E-03 10896   0.624E-01    0.781E-02
DAV:   2    -0.419703938858E+02    0.57646E-04   -0.53196E-04 12332   0.328E-01    0.419E-02
DAV:   3    -0.419703703601E+02    0.23526E-04   -0.50001E-05 14412   0.912E-02    0.180E-02
DAV:   4    -0.419703647860E+02    0.55741E-05   -0.12469E-05 13172   0.484E-02    0.288E-03
DAV:   5    -0.419703651201E+02   -0.33408E-06   -0.44169E-06 10724   0.171E-02    0.180E-03
DAV:   6    -0.419703650915E+02    0.28535E-07   -0.19947E-07 13412   0.680E-03    0.111E-03
DAV:   7    -0.419703650643E+02    0.27223E-07   -0.46793E-08 10648   0.431E-03    0.526E-04
DAV:   8    -0.419703650465E+02    0.17826E-07   -0.12600E-08  6220   0.200E-03    0.133E-04
DAV:   9    -0.419703650448E+02    0.17258E-08   -0.61808E-09  5960   0.900E-04
   5 F= -.41970365E+02 E0= -.41969612E+02  d E =-.332114E-03
 curvature:  -0.83 expect dE=-0.761E-04 dE for cont linesearch -0.347E-06
 trial: gam= 0.15413 g(F)=  0.869E-04 g(S)=  0.468E-05 ort = 0.160E-04 (trialstep = 0.105E+01)
 search vector abs. value=  0.111E-03
 bond charge predicted
       N       E                     dE             d eps       ncg     rms          rms(c)
DAV:   1    -0.419704066255E+02   -0.41579E-04   -0.25736E-02  9868   0.872E-01    0.493E-02
DAV:   2    -0.419704449447E+02   -0.38319E-04   -0.65735E-04 12144   0.205E-01    0.300E-02
DAV:   3    -0.419704357662E+02    0.91785E-05   -0.36789E-05 12092   0.709E-02    0.142E-02
DAV:   4    -0.419704328412E+02    0.29249E-05   -0.77228E-06 13508   0.678E-02    0.277E-03
DAV:   5    -0.419704330764E+02   -0.23512E-06   -0.32199E-06 11236   0.223E-02    0.159E-03
DAV:   6    -0.419704330998E+02   -0.23455E-07   -0.41446E-07 11728   0.701E-03    0.112E-03
DAV:   7    -0.419704331008E+02   -0.94133E-09   -0.47564E-08 10892   0.580E-03
   6 F= -.41970433E+02 E0= -.41969664E+02  d E =-.680560E-04
 trial-energy change:   -0.000068  1 .order   -0.000064   -0.000099   -0.000028
 step:   1.3348(harm=  1.4743)  dis= 0.00115  next Energy=   -41.970437 (dE=-0.720E-04)
 bond charge predicted
       N       E                     dE             d eps       ncg     rms          rms(c)
DAV:   1    -0.419704363972E+02   -0.32974E-05   -0.19043E-03  9868   0.237E-01    0.134E-02
DAV:   2    -0.419704392066E+02   -0.28094E-05   -0.48845E-05 12144   0.568E-02    0.821E-03
DAV:   3    -0.419704384828E+02    0.72378E-06   -0.29129E-06 11980   0.206E-02    0.393E-03
DAV:   4    -0.419704382406E+02    0.24222E-06   -0.62058E-07 13564   0.199E-02    0.787E-04
DAV:   5    -0.419704382583E+02   -0.17723E-07   -0.25516E-07 11244   0.641E-03    0.439E-04
DAV:   6    -0.419704382607E+02   -0.23656E-08   -0.33416E-08  8572   0.184E-03
   7 F= -.41970438E+02 E0= -.41969665E+02  d E =-.732159E-04
 curvature:  -0.78 expect dE=-0.661E-05 dE for cont linesearch -0.604E-06
 ZBRENT: increasing intervall
 opt :   1.9054  next Energy=   -41.970433 (dE=-0.684E-04)
 bond charge predicted
       N       E                     dE             d eps       ncg     rms          rms(c)
DAV:   1    -0.419704253860E+02    0.12872E-04   -0.76089E-03  9868   0.474E-01    0.268E-02
DAV:   2    -0.419704367129E+02   -0.11327E-04   -0.19446E-04 12132   0.112E-01    0.163E-02
DAV:   3    -0.419704339526E+02    0.27603E-05   -0.10994E-05 12052   0.396E-02    0.774E-03
DAV:   4    -0.419704330661E+02    0.88651E-06   -0.23289E-06 13492   0.381E-02    0.153E-03
DAV:   5    -0.419704331358E+02   -0.69690E-07   -0.96316E-07 11244   0.123E-02    0.855E-04
DAV:   6    -0.419704331442E+02   -0.84142E-08   -0.12834E-07 11384   0.368E-03    0.609E-04
DAV:   7    -0.419704331464E+02   -0.22301E-08   -0.11673E-08  6336   0.320E-03
   8 F= -.41970433E+02 E0= -.41969651E+02  d E =-.681017E-04
 curvature:   6.24 expect dE= 0.163E-03 dE for cont linesearch  0.408E-04
 ZBRENT: bracketing found
 ZBRENT: interpolating
 opt :   1.4811  next Energy=   -41.970439 (dE=-0.739E-04)
 bond charge predicted
       N       E                     dE             d eps       ncg     rms          rms(c)
DAV:   1    -0.419704343185E+02   -0.11743E-05   -0.42027E-03  9868   0.352E-01    0.199E-02
DAV:   2    -0.419704406567E+02   -0.63382E-05   -0.10716E-04 12132   0.818E-02    0.121E-02
DAV:   3    -0.419704392882E+02    0.13685E-05   -0.57385E-06 12200   0.271E-02    0.566E-03
DAV:   4    -0.419704388753E+02    0.41293E-06   -0.11871E-06 13524   0.263E-02    0.109E-03
DAV:   5    -0.419704389141E+02   -0.38851E-07   -0.49879E-07 11220   0.877E-03    0.632E-04
DAV:   6    -0.419704389174E+02   -0.32551E-08   -0.62621E-08 10520   0.280E-03
   9 F= -.41970439E+02 E0= -.41969663E+02  d E =-.738726E-04
 curvature:  -0.10 expect dE=-0.104E-05 dE for cont linesearch -0.677E-09
 trial: gam= 0.13326 g(F)=  0.904E-05 g(S)=  0.983E-06 ort = 0.850E-06 (trialstep = 0.114E+01)
 search vector abs. value=  0.122E-04
 bond charge predicted
       N       E                     dE             d eps       ncg     rms          rms(c)
DAV:   1    -0.419704440852E+02   -0.51711E-05   -0.31115E-03  9908   0.318E-01    0.199E-02
DAV:   2    -0.419704475932E+02   -0.35080E-05   -0.90378E-05 13032   0.779E-02    0.121E-02
DAV:   3    -0.419704455222E+02    0.20710E-05   -0.46495E-06 13032   0.223E-02    0.488E-03
DAV:   4    -0.419704451783E+02    0.34384E-06   -0.14838E-06 13300   0.150E-02    0.922E-04
DAV:   5    -0.419704452115E+02   -0.33208E-07   -0.44928E-07 10896   0.640E-03    0.673E-04
DAV:   6    -0.419704452012E+02    0.10371E-07   -0.23032E-08  7932   0.306E-03    0.380E-04
DAV:   7    -0.419704451948E+02    0.63569E-08   -0.12647E-08  6288   0.138E-03
  10 F= -.41970445E+02 E0= -.41969667E+02  d E =-.627742E-05
 trial-energy change:   -0.000006  1 .order   -0.000006   -0.000012   -0.000001
 step:   1.2531(harm=  1.2531)  dis= 0.00035  next Energy=   -41.970445 (dE=-0.635E-05)
 bond charge predicted
       N       E                     dE             d eps       ncg     rms          rms(c)
DAV:   1    -0.419704452417E+02   -0.40487E-07   -0.33235E-05  9984   0.329E-02    0.206E-03
DAV:   2    -0.419704452791E+02   -0.37403E-07   -0.97523E-07 13008   0.830E-03    0.125E-03
DAV:   3    -0.419704452619E+02    0.17196E-07   -0.53070E-08 11608   0.255E-03    0.526E-04
DAV:   4    -0.419704452576E+02    0.42282E-08   -0.14016E-08  6556   0.171E-03
  11 F= -.41970445E+02 E0= -.41969667E+02  d E =-.634025E-05
 curvature:  -0.76 expect dE=-0.159E-05 dE for cont linesearch -0.582E-09
 trial: gam= 0.20420 g(F)=  0.164E-05 g(S)=  0.470E-06 ort = 0.970E-07 (trialstep = 0.116E+01)
 search vector abs. value=  0.266E-05
 bond charge predicted
       N       E                     dE             d eps       ncg     rms          rms(c)
DAV:   1    -0.419704475370E+02   -0.22751E-05   -0.65661E-04  9956   0.150E-01    0.115E-02
DAV:   2    -0.419704475008E+02    0.36191E-07   -0.20996E-05 11896   0.459E-02    0.651E-03
DAV:   3    -0.419704467703E+02    0.73054E-06   -0.20493E-06 13160   0.162E-02    0.278E-03
DAV:   4    -0.419704466679E+02    0.10235E-06   -0.49858E-07 12572   0.873E-03    0.475E-04
DAV:   5    -0.419704466829E+02   -0.15024E-07   -0.14681E-07 10700   0.352E-03    0.387E-04
DAV:   6    -0.419704466905E+02   -0.75538E-08   -0.76532E-09  6072   0.174E-03
  12 F= -.41970447E+02 E0= -.41969668E+02  d E =-.143284E-05
 trial-energy change:   -0.000001  1 .order   -0.000001   -0.000002   -0.000000
 step:   1.2709(harm=  1.2944)  dis= 0.00012  next Energy=   -41.970447 (dE=-0.145E-05)
 bond charge predicted
       N       E                     dE             d eps       ncg     rms          rms(c)
DAV:   1    -0.419704467285E+02   -0.45625E-07   -0.61395E-06 10084   0.145E-02    0.112E-03
DAV:   2    -0.419704467337E+02   -0.51928E-08   -0.19796E-07 11920   0.450E-03    0.634E-04
DAV:   3    -0.419704467224E+02    0.11340E-07   -0.16107E-08  6400   0.171E-03    0.277E-04
DAV:   4    -0.419704467229E+02   -0.45293E-09   -0.79710E-09  5552   0.116E-03
  13 F= -.41970447E+02 E0= -.41969668E+02  d E =-.146522E-05
 curvature:  -0.78 expect dE=-0.696E-06 dE for cont linesearch -0.134E-08
 trial: gam= 0.39217 g(F)=  0.795E-06 g(S)=  0.931E-07 ort = 0.673E-07 (trialstep = 0.118E+01)
 search vector abs. value=  0.135E-05
 bond charge predicted
       N       E                     dE             d eps       ncg     rms          rms(c)
DAV:   1    -0.419704472177E+02   -0.49532E-06   -0.36493E-04  9896   0.110E-01    0.629E-03
DAV:   2    -0.419704475905E+02   -0.37273E-06   -0.10383E-05 11976   0.334E-02    0.334E-03
DAV:   3    -0.419704475506E+02    0.39909E-07   -0.84602E-07 12600   0.100E-02    0.174E-03
DAV:   4    -0.419704475257E+02    0.24894E-07   -0.15549E-07 14044   0.606E-03    0.350E-04
DAV:   5    -0.419704475346E+02   -0.89626E-08   -0.53277E-08 10508   0.207E-03
  14 F= -.41970448E+02 E0= -.41969669E+02  d E =-.811764E-06
 trial-energy change:   -0.000001  1 .order   -0.000001   -0.000001   -0.000000
 step:   2.1584(harm=  2.1584)  dis= 0.00021  next Energy=   -41.970448 (dE=-0.987E-06)
 bond charge predicted
       N       E                     dE             d eps       ncg     rms          rms(c)
DAV:   1    -0.419704475240E+02    0.17039E-08   -0.24950E-04  9896   0.908E-02    0.524E-03
DAV:   2    -0.419704477753E+02   -0.25132E-06   -0.71379E-06 11976   0.277E-02    0.276E-03
DAV:   3    -0.419704477559E+02    0.19394E-07   -0.58074E-07 12572   0.835E-03    0.144E-03
DAV:   4    -0.419704477415E+02    0.14390E-07   -0.10621E-07 13872   0.500E-03    0.288E-04
DAV:   5    -0.419704477479E+02   -0.64279E-08   -0.36436E-08  9292   0.172E-03
  15 F= -.41970448E+02 E0= -.41969669E+02  d E =-.102506E-05
 curvature:  -1.59 expect dE=-0.112E-05 dE for cont linesearch -0.157E-15
 trial: gam= 0.85046 g(F)=  0.477E-06 g(S)=  0.223E-06 ort = 0.115E-10 (trialstep = 0.111E+01)
 search vector abs. value=  0.168E-05
 bond charge predicted
       N       E                     dE             d eps       ncg     rms          rms(c)
DAV:   1    -0.419704480992E+02   -0.35774E-06   -0.41729E-04  9868   0.124E-01    0.780E-03
DAV:   2    -0.419704484738E+02   -0.37459E-06   -0.16591E-05 12240   0.452E-02    0.414E-03
DAV:   3    -0.419704482574E+02    0.21639E-06   -0.11374E-06 12784   0.133E-02    0.203E-03
DAV:   4    -0.419704481298E+02    0.12758E-06   -0.26479E-07 14156   0.626E-03    0.566E-04
DAV:   5    -0.419704481231E+02    0.66921E-08   -0.93722E-08 10692   0.260E-03
  16 F= -.41970448E+02 E0= -.41969669E+02  d E =-.375236E-06
 trial-energy change:   -0.000000  1 .order   -0.000000   -0.000001   -0.000000
 step:   1.1409(harm=  1.1409)  dis= 0.00015  next Energy=   -41.970448 (dE=-0.400E-06)
 bond charge predicted
       N       E                     dE             d eps       ncg     rms          rms(c)
DAV:   1    -0.419704481298E+02    0.78671E-10   -0.38105E-07 10276   0.382E-03    0.316E-04
DAV:   2    -0.419704481325E+02   -0.27794E-08   -0.13308E-08  6168   0.152E-03
  17 F= -.41970448E+02 E0= -.41969669E+02  d E =-.384628E-06
 curvature:  -1.37 expect dE=-0.202E-06 dE for cont linesearch -0.551E-09
 trial: gam= 0.22221 g(F)=  0.119E-06 g(S)=  0.291E-07 ort =-0.260E-07 (trialstep = 0.111E+01)
 search vector abs. value=  0.219E-06
 bond charge predicted
       N       E                     dE             d eps       ncg     rms          rms(c)
DAV:   1    -0.419704482113E+02   -0.81532E-07   -0.59420E-05  9920   0.421E-02    0.179E-03
DAV:   2    -0.419704482634E+02   -0.52066E-07   -0.10512E-06 12104   0.861E-03    0.115E-03
DAV:   3    -0.419704482570E+02    0.63701E-08   -0.56897E-08 11916   0.356E-03
  18 F= -.41970448E+02 E0= -.41969669E+02  d E =-.124448E-06
 trial-energy change:   -0.000000  1 .order   -0.000000   -0.000000   -0.000000
 step:   3.1091(harm=  3.1091)  dis= 0.00012  next Energy=   -41.970448 (dE=-0.221E-06)
 bond charge predicted
       N       E                     dE             d eps       ncg     rms          rms(c)
DAV:   1    -0.419704481333E+02    0.13008E-06   -0.18944E-04  9912   0.750E-02    0.327E-03
DAV:   2    -0.419704482791E+02   -0.14583E-06   -0.32181E-06 12148   0.148E-02    0.209E-03
DAV:   3    -0.419704482413E+02    0.37808E-07   -0.18089E-07 13556   0.574E-03    0.935E-04
DAV:   4    -0.419704482326E+02    0.86670E-08   -0.63365E-08 11272   0.311E-03
  19 F= -.41970448E+02 E0= -.41969669E+02  d E =-.100092E-06
 curvature:  -2.40 expect dE=-0.663E-06 dE for cont linesearch -0.105E-06
 ZBRENT: interpolating
 opt :   2.0754  next Energy=   -41.970448 (dE=-0.168E-06)
 bond charge predicted
       N       E                     dE             d eps       ncg     rms          rms(c)
DAV:   1    -0.419704482782E+02   -0.36910E-07   -0.50909E-05  9916   0.389E-02    0.166E-03
DAV:   2    -0.419704483155E+02   -0.37299E-07   -0.89157E-07 12076   0.782E-03    0.107E-03
DAV:   3    -0.419704482860E+02    0.29492E-07   -0.46046E-08 11652   0.278E-03    0.479E-04
DAV:   4    -0.419704482786E+02    0.73951E-08   -0.16109E-08  5868   0.150E-03
  20 F= -.41970448E+02 E0= -.41969669E+02  d E =-.146080E-06
 curvature:  -1.00 expect dE=-0.686E-07 dE for cont linesearch -0.666E-09
 trial: gam= 0.57870 g(F)=  0.625E-07 g(S)=  0.637E-08 ort =-0.121E-07 (trialstep = 0.131E+01)
 search vector abs. value=  0.128E-06
 bond charge predicted
       N       E                     dE             d eps       ncg     rms          rms(c)
DAV:   1    -0.419704483435E+02   -0.57456E-07   -0.45618E-05  9960   0.360E-02    0.189E-03
DAV:   2    -0.419704483578E+02   -0.14347E-07   -0.65687E-07 12196   0.803E-03    0.113E-03
DAV:   3    -0.419704483328E+02    0.25046E-07   -0.62471E-08 11656   0.326E-03    0.483E-04
DAV:   4    -0.419704483329E+02   -0.12551E-09   -0.13369E-08  6000   0.238E-03
  21 F= -.41970448E+02 E0= -.41969669E+02  d E =-.542782E-07
 trial-energy change:   -0.000000  1 .order   -0.000000   -0.000000   -0.000000
 step:   1.5040(harm=  1.5040)  dis= 0.00007  next Energy=   -41.970448 (dE=-0.465E-07)
 bond charge predicted
       N       E                     dE             d eps       ncg     rms          rms(c)
DAV:   1    -0.419704483354E+02   -0.26498E-08   -0.10439E-06 10248   0.553E-03    0.301E-04
DAV:   2    -0.419704483374E+02   -0.19932E-08   -0.13340E-08  6448   0.160E-03
  22 F= -.41970448E+02 E0= -.41969669E+02  d E =-.587956E-07
 curvature:  -1.56 expect dE=-0.939E-07 dE for cont linesearch -0.980E-12
 trial: gam= 0.74053 g(F)=  0.216E-07 g(S)=  0.386E-07 ort =-0.284E-09 (trialstep = 0.133E+01)
 search vector abs. value=  0.130E-06
 reached required accuracy - stopping structural energy minimisation
 writing wavefunctions
Thu Jan  6 03:12:28 CST 2022
