Thu Jan  6 03:28:53 CST 2022
 running on   48 total cores
 distrk:  each k-point on   48 cores,    1 groups
 distr:  one band on   24 cores,    2 groups
 using from now: INCAR     
 vasp.5.3.5 31Mar14 (build Jan 11 2016 19:50:55) complex                        
  
 POSCAR found type information on POSCAR  Zn Ga N  O 
 POSCAR found :  4 types and       8 ions
 scaLAPACK will be used

 ----------------------------------------------------------------------------- 
|                                                                             |
|           W    W    AA    RRRRR   N    N  II  N    N   GGGG   !!!           |
|           W    W   A  A   R    R  NN   N  II  NN   N  G    G  !!!           |
|           W    W  A    A  R    R  N N  N  II  N N  N  G       !!!           |
|           W WW W  AAAAAA  RRRRR   N  N N  II  N  N N  G  GGG   !            |
|           WW  WW  A    A  R   R   N   NN  II  N   NN  G    G                |
|           W    W  A    A  R    R  N    N  II  N    N   GGGG   !!!           |
|                                                                             |
|      For optimal performance we recommend to set                            |
|        NCORE= 4 - approx SQRT( number of cores)                             |
|      NCORE specifies how many cores store one orbital (NPAR=cpu/NCORE).     |
|      This setting can  greatly improve the performance of VASP for DFT.     |
|      The default, NPAR=number of cores might be grossly inefficient         |
|      on modern multi-core architectures or massively parallel machines.     |
|      Do your own testing !!!!                                               |
|      Unfortunately you need to use the default for GW and RPA calculations. |
|      (for HF NCORE is supported but not extensively tested yet)             |
|                                                                             |
 ----------------------------------------------------------------------------- 

 LDA part: xc-table for Pade appr. of Perdew
 POSCAR, INCAR and KPOINTS ok, starting setup
 WARNING: small aliasing (wrap around) errors must be expected
 FFT: planning ...
 WAVECAR not read
 entering main loop
       N       E                     dE             d eps       ncg     rms          rms(c)
DAV:   1     0.901867245929E+03    0.90187E+03   -0.41365E+04 10192   0.341E+03
DAV:   2     0.137378992628E+03   -0.76449E+03   -0.73305E+03  9888   0.790E+02
DAV:   3    -0.345097997854E+02   -0.17189E+03   -0.16723E+03 11072   0.270E+02
DAV:   4    -0.489916737980E+02   -0.14482E+02   -0.14316E+02 12208   0.800E+01
DAV:   5    -0.494428347425E+02   -0.45116E+00   -0.44934E+00 12388   0.141E+01    0.172E+01
DAV:   6    -0.412406305949E+02    0.82022E+01   -0.23089E+01 18672   0.816E+01    0.799E+00
DAV:   7    -0.420077686228E+02   -0.76714E+00   -0.94032E+00 10656   0.214E+01    0.554E+00
DAV:   8    -0.419082779197E+02    0.99491E-01   -0.12042E+00 15544   0.977E+00    0.253E+00
DAV:   9    -0.418789504492E+02    0.29327E-01   -0.19039E-01 12896   0.461E+00    0.110E+00
DAV:  10    -0.418661000771E+02    0.12850E-01   -0.74460E-02 14080   0.191E+00    0.401E-01
DAV:  11    -0.418665232145E+02   -0.42314E-03   -0.12522E-02 13768   0.946E-01    0.116E-01
DAV:  12    -0.418667103336E+02   -0.18712E-03   -0.23807E-03 12132   0.570E-01    0.472E-02
DAV:  13    -0.418667614609E+02   -0.51127E-04   -0.39682E-04 12332   0.208E-01    0.583E-02
DAV:  14    -0.418667497133E+02    0.11748E-04   -0.87222E-05 13952   0.155E-01    0.253E-02
DAV:  15    -0.418667508018E+02   -0.10885E-05   -0.43650E-05 13520   0.646E-02    0.183E-02
DAV:  16    -0.418667514780E+02   -0.67626E-06   -0.56488E-06 13868   0.421E-02    0.866E-03
DAV:  17    -0.418667516345E+02   -0.15646E-06   -0.12949E-06 12936   0.138E-02    0.252E-03
DAV:  18    -0.418667514937E+02    0.14073E-06   -0.49005E-07 12476   0.692E-03    0.143E-03
DAV:  19    -0.418667515271E+02   -0.33360E-07   -0.64848E-08 10552   0.496E-03    0.360E-04
DAV:  20    -0.418667515242E+02    0.29568E-08   -0.11369E-08  5888   0.197E-03
   1 F= -.41866752E+02 E0= -.41866744E+02  d E =-.418668E+02
 curvature:   0.00 expect dE= 0.000E+00 dE for cont linesearch  0.000E+00
 trial: gam= 0.00000 g(F)=  0.103E-04 g(S)=  0.597E-06 ort = 0.000E+00 (trialstep = 0.100E+01)
 search vector abs. value=  0.109E-04
 bond charge predicted
       N       E                     dE             d eps       ncg     rms          rms(c)
DAV:   1    -0.418667549169E+02   -0.33898E-05   -0.21886E-03 10520   0.269E-01    0.114E-02
DAV:   2    -0.418667582986E+02   -0.33817E-05   -0.56452E-05 11124   0.759E-02    0.690E-03
DAV:   3    -0.418667577476E+02    0.55103E-06   -0.45591E-06 13204   0.231E-02    0.350E-03
DAV:   4    -0.418667573590E+02    0.38852E-06   -0.10242E-06 13260   0.140E-02    0.843E-04
DAV:   5    -0.418667573601E+02   -0.10928E-08   -0.30921E-07 11080   0.591E-03    0.565E-04
DAV:   6    -0.418667573632E+02   -0.30986E-08   -0.27232E-08  7756   0.240E-03
   2 F= -.41866757E+02 E0= -.41866750E+02  d E =-.583909E-05
 trial-energy change:   -0.000006  1 .order   -0.000006   -0.000011   -0.000001
 step:   1.1284(harm=  1.1145)  dis= 0.00039  next Energy=   -41.866757 (dE=-0.591E-05)
 bond charge predicted
       N       E                     dE             d eps       ncg     rms          rms(c)
DAV:   1    -0.418667574069E+02   -0.46776E-07   -0.36181E-05 10528   0.347E-02    0.150E-03
DAV:   2    -0.418667574692E+02   -0.62235E-07   -0.94849E-07 11180   0.105E-02    0.882E-04
DAV:   3    -0.418667574432E+02    0.25954E-07   -0.79808E-08 11952   0.407E-03    0.460E-04
DAV:   4    -0.418667574197E+02    0.23450E-07   -0.16551E-08  5844   0.293E-03    0.121E-04
DAV:   5    -0.418667574175E+02    0.22169E-08   -0.85045E-09  5452   0.162E-03
   3 F= -.41866757E+02 E0= -.41866750E+02  d E =-.589338E-05
 curvature:  -0.55 expect dE=-0.136E-05 dE for cont linesearch -0.891E-09
 trial: gam= 0.23941 g(F)=  0.162E-05 g(S)=  0.849E-06 ort =-0.133E-06 (trialstep = 0.103E+01)
 search vector abs. value=  0.303E-05
 bond charge predicted
       N       E                     dE             d eps       ncg     rms          rms(c)
DAV:   1    -0.418667606218E+02   -0.32021E-05   -0.64670E-04 10400   0.162E-01    0.141E-02
DAV:   2    -0.418667594515E+02    0.11704E-05   -0.29687E-05 11744   0.689E-02    0.684E-03
DAV:   3    -0.418667589629E+02    0.48854E-06   -0.25752E-06 12952   0.198E-02    0.333E-03
DAV:   4    -0.418667587791E+02    0.18378E-06   -0.60267E-07 13932   0.103E-02    0.660E-04
DAV:   5    -0.418667587964E+02   -0.17297E-07   -0.20753E-07 10760   0.410E-03    0.347E-04
DAV:   6    -0.418667587887E+02    0.77493E-08   -0.14045E-08  5960   0.151E-03
   4 F= -.41866759E+02 E0= -.41866752E+02  d E =-.137116E-05
 trial-energy change:   -0.000001  1 .order   -0.000001   -0.000003   -0.000000
 step:   1.1590(harm=  1.1590)  dis= 0.00024  next Energy=   -41.866759 (dE=-0.141E-05)
 bond charge predicted
       N       E                     dE             d eps       ncg     rms          rms(c)
DAV:   1    -0.418667588286E+02   -0.32148E-07   -0.11007E-05 10484   0.213E-02    0.188E-03
DAV:   2    -0.418667587942E+02    0.34377E-07   -0.51985E-07 11744   0.953E-03    0.894E-04
DAV:   3    -0.418667587961E+02   -0.19159E-08   -0.46081E-08 10360   0.317E-03
   5 F= -.41866759E+02 E0= -.41866752E+02  d E =-.137859E-05
 curvature:  -0.72 expect dE=-0.484E-06 dE for cont linesearch -0.822E-08
 trial: gam= 0.19686 g(F)=  0.568E-06 g(S)=  0.104E-06 ort = 0.186E-06 (trialstep = 0.105E+01)
 search vector abs. value=  0.863E-06
 bond charge predicted
       N       E                     dE             d eps       ncg     rms          rms(c)
DAV:   1    -0.418667593723E+02   -0.57811E-06   -0.18591E-04 10288   0.835E-02    0.585E-03
DAV:   2    -0.418667594227E+02   -0.50404E-07   -0.71247E-06 11628   0.325E-02    0.301E-03
DAV:   3    -0.418667592683E+02    0.15440E-06   -0.61503E-07 12572   0.996E-03    0.149E-03
DAV:   4    -0.418667592000E+02    0.68286E-07   -0.13803E-07 13672   0.542E-03    0.271E-04
DAV:   5    -0.418667591987E+02    0.13433E-08   -0.44368E-08  9796   0.188E-03
   6 F= -.41866759E+02 E0= -.41866752E+02  d E =-.402563E-06
 trial-energy change:   -0.000000  1 .order   -0.000000   -0.000001   -0.000000
 step:   1.2486(harm=  1.2486)  dis= 0.00008  next Energy=   -41.866759 (dE=-0.442E-06)
 bond charge predicted
       N       E                     dE             d eps       ncg     rms          rms(c)
DAV:   1    -0.418667592327E+02   -0.32650E-07   -0.64991E-06 10336   0.156E-02    0.112E-03
DAV:   2    -0.418667592395E+02   -0.67753E-08   -0.24798E-07 11664   0.611E-03    0.567E-04
DAV:   3    -0.418667592251E+02    0.14367E-07   -0.18141E-08  6524   0.188E-03    0.284E-04
DAV:   4    -0.418667592200E+02    0.50718E-08   -0.64825E-09  5368   0.122E-03
   7 F= -.41866759E+02 E0= -.41866752E+02  d E =-.423894E-06
 curvature:  -0.76 expect dE=-0.489E-06 dE for cont linesearch -0.106E-09
 trial: gam= 1.02207 g(F)=  0.295E-06 g(S)=  0.348E-06 ort =-0.110E-07 (trialstep = 0.619E+00)
 search vector abs. value=  0.152E-05
 bond charge predicted
       N       E                     dE             d eps       ncg     rms          rms(c)
DAV:   1    -0.418667594734E+02   -0.24836E-06   -0.11758E-04 10084   0.640E-02    0.364E-03
DAV:   2    -0.418667595287E+02   -0.55228E-07   -0.31981E-06 11808   0.196E-02    0.208E-03
DAV:   3    -0.418667595374E+02   -0.86811E-08   -0.21870E-07 13388   0.586E-03    0.984E-04
DAV:   4    -0.418667595517E+02   -0.14346E-07   -0.55156E-08 12048   0.302E-03    0.234E-04
DAV:   5    -0.418667595591E+02   -0.73824E-08   -0.19824E-08  7472   0.125E-03
   8 F= -.41866760E+02 E0= -.41866752E+02  d E =-.339066E-06
 trial-energy change:   -0.000000  1 .order   -0.000000   -0.000000   -0.000000
 step:   0.8593(harm=  1.3017)  dis= 0.00007  next Energy=   -41.866760 (dE=-0.381E-06)
 bond charge predicted
       N       E                     dE             d eps       ncg     rms          rms(c)
DAV:   1    -0.418667596022E+02   -0.50469E-07   -0.17751E-05 10092   0.248E-02    0.143E-03
DAV:   2    -0.418667596086E+02   -0.64310E-08   -0.47500E-07 11880   0.748E-03    0.807E-04
DAV:   3    -0.418667596197E+02   -0.11073E-07   -0.29137E-08  9252   0.224E-03    0.376E-04
DAV:   4    -0.418667596273E+02   -0.75897E-08   -0.91677E-09  5476   0.133E-03
   9 F= -.41866760E+02 E0= -.41866752E+02  d E =-.407246E-06
 curvature:  -0.91 expect dE=-0.265E-06 dE for cont linesearch -0.154E-07
 trial: gam= 0.12275 g(F)=  0.141E-06 g(S)=  0.150E-06 ort = 0.161E-06 (trialstep = 0.667E+00)
 search vector abs. value=  0.354E-06
 bond charge predicted
       N       E                     dE             d eps       ncg     rms          rms(c)
DAV:   1    -0.418667600191E+02   -0.39942E-06   -0.28299E-05 11132   0.442E-02    0.460E-03
DAV:   2    -0.418667598690E+02    0.15013E-06   -0.30416E-06 12076   0.242E-02    0.218E-03
DAV:   3    -0.418667597579E+02    0.11102E-06   -0.23827E-07 13924   0.648E-03    0.103E-03
DAV:   4    -0.418667597024E+02    0.55582E-07   -0.54913E-08 11460   0.320E-03    0.222E-04
DAV:   5    -0.418667596982E+02    0.42055E-08   -0.25466E-08  7272   0.135E-03
  10 F= -.41866760E+02 E0= -.41866752E+02  d E =-.708897E-07
 trial-energy change:   -0.000000  1 .order   -0.000000   -0.000000    0.000000
 step:   0.6539(harm=  0.6539)  dis= 0.00002  next Energy=   -41.866760 (dE=-0.102E-06)
 bond charge predicted
       N       E                     dE             d eps       ncg     rms          rms(c)
DAV:   1    -0.418667596997E+02    0.27057E-08   -0.10152E-08  5316   0.112E-03    0.141E-04
DAV:   2    -0.418667596992E+02    0.49431E-09   -0.43925E-09  5216   0.106E-03
  11 F= -.41866760E+02 E0= -.41866752E+02  d E =-.718951E-07
 curvature:  -0.37 expect dE=-0.417E-07 dE for cont linesearch -0.272E-08
 trial: gam= 0.27874 g(F)=  0.998E-07 g(S)=  0.124E-07 ort = 0.509E-07 (trialstep = 0.664E+00)
 search vector abs. value=  0.168E-06
 reached required accuracy - stopping structural energy minimisation
 writing wavefunctions
Thu Jan  6 03:31:07 CST 2022
