Wed Jan  5 23:30:45 CST 2022
 running on   48 total cores
 distrk:  each k-point on   48 cores,    1 groups
 distr:  one band on   24 cores,    2 groups
 using from now: INCAR     
 vasp.5.3.5 31Mar14 (build Jan 11 2016 19:50:55) complex                        
  
 POSCAR found type information on POSCAR  Zn Ga N  O 
 POSCAR found :  4 types and       8 ions
 scaLAPACK will be used

 ----------------------------------------------------------------------------- 
|                                                                             |
|           W    W    AA    RRRRR   N    N  II  N    N   GGGG   !!!           |
|           W    W   A  A   R    R  NN   N  II  NN   N  G    G  !!!           |
|           W    W  A    A  R    R  N N  N  II  N N  N  G       !!!           |
|           W WW W  AAAAAA  RRRRR   N  N N  II  N  N N  G  GGG   !            |
|           WW  WW  A    A  R   R   N   NN  II  N   NN  G    G                |
|           W    W  A    A  R    R  N    N  II  N    N   GGGG   !!!           |
|                                                                             |
|      For optimal performance we recommend to set                            |
|        NCORE= 4 - approx SQRT( number of cores)                             |
|      NCORE specifies how many cores store one orbital (NPAR=cpu/NCORE).     |
|      This setting can  greatly improve the performance of VASP for DFT.     |
|      The default, NPAR=number of cores might be grossly inefficient         |
|      on modern multi-core architectures or massively parallel machines.     |
|      Do your own testing !!!!                                               |
|      Unfortunately you need to use the default for GW and RPA calculations. |
|      (for HF NCORE is supported but not extensively tested yet)             |
|                                                                             |
 ----------------------------------------------------------------------------- 

 LDA part: xc-table for Pade appr. of Perdew
 POSCAR, INCAR and KPOINTS ok, starting setup
 WARNING: small aliasing (wrap around) errors must be expected
 FFT: planning ...
 WAVECAR not read
 entering main loop
       N       E                     dE             d eps       ncg     rms          rms(c)
DAV:   1     0.904970991027E+03    0.90497E+03   -0.42262E+04 10152   0.336E+03
DAV:   2     0.144791134931E+03   -0.76018E+03   -0.73106E+03  9888   0.785E+02
DAV:   3    -0.278764800087E+02   -0.17267E+03   -0.16779E+03 11212   0.268E+02
DAV:   4    -0.432641986045E+02   -0.15388E+02   -0.15120E+02 11740   0.798E+01
DAV:   5    -0.437775882601E+02   -0.51339E+00   -0.51124E+00 12264   0.144E+01    0.158E+01
DAV:   6    -0.379048676469E+02    0.58727E+01   -0.39424E+01 18412   0.774E+01    0.861E+00
DAV:   7    -0.378277641284E+02    0.77104E-01   -0.83437E+00 10996   0.246E+01    0.541E+00
DAV:   8    -0.377829259703E+02    0.44838E-01   -0.11735E+00 13332   0.917E+00    0.298E+00
DAV:   9    -0.377829964961E+02   -0.70526E-04   -0.27709E-01 12652   0.575E+00    0.838E-01
DAV:  10    -0.377719649943E+02    0.11032E-01   -0.58803E-02 13700   0.292E+00    0.319E-01
DAV:  11    -0.377721692143E+02   -0.20422E-03   -0.18577E-02 13204   0.115E+00    0.146E-01
DAV:  12    -0.377723299501E+02   -0.16074E-03   -0.21561E-03 12236   0.722E-01    0.900E-02
DAV:  13    -0.377723856693E+02   -0.55719E-04   -0.71170E-04 13000   0.295E-01    0.217E-02
DAV:  14    -0.377724041589E+02   -0.18490E-04   -0.95754E-05 11180   0.743E-02    0.120E-02
DAV:  15    -0.377724064309E+02   -0.22720E-05   -0.17415E-05 12076   0.265E-02    0.691E-03
DAV:  16    -0.377724077268E+02   -0.12959E-05   -0.47351E-06 12960   0.240E-02    0.234E-03
DAV:  17    -0.377724078884E+02   -0.16160E-06   -0.12784E-06 11540   0.902E-03    0.110E-03
DAV:  18    -0.377724079288E+02   -0.40454E-07   -0.26440E-07 10836   0.566E-03    0.784E-04
DAV:  19    -0.377724079191E+02    0.96857E-08   -0.69207E-08 10768   0.486E-03
   1 F= -.37772408E+02 E0= -.37762801E+02  d E =-.377724E+02
 curvature:   0.00 expect dE= 0.000E+00 dE for cont linesearch  0.000E+00
 trial: gam= 0.00000 g(F)=  0.151E+00 g(S)=  0.689E-01 ort = 0.000E+00 (trialstep = 0.100E+01)
 search vector abs. value=  0.220E+00
 bond charge predicted
       N       E                     dE             d eps       ncg     rms          rms(c)
DAV:   1    -0.380402363795E+02   -0.26783E+00   -0.42036E+01 11024   0.550E+01    0.556E+00
DAV:   2    -0.378659865064E+02    0.17425E+00   -0.53892E+00 12152   0.250E+01    0.251E+00
DAV:   3    -0.378017271181E+02    0.64259E-01   -0.45433E-01 14360   0.625E+00    0.146E+00
DAV:   4    -0.377688066831E+02    0.32920E-01   -0.11727E-01 11632   0.252E+00    0.644E-01
DAV:   5    -0.377621525384E+02    0.66541E-02   -0.19294E-02 15588   0.148E+00    0.144E-01
DAV:   6    -0.377623605004E+02   -0.20796E-03   -0.65771E-03 10816   0.853E-01    0.904E-02
DAV:   7    -0.377623112678E+02    0.49233E-04   -0.57661E-04 14248   0.281E-01    0.453E-02
DAV:   8    -0.377623064700E+02    0.47978E-05   -0.19954E-04 14232   0.148E-01    0.218E-02
DAV:   9    -0.377623049814E+02    0.14886E-05   -0.46636E-05 11200   0.793E-02    0.982E-03
DAV:  10    -0.377623059184E+02   -0.93693E-06   -0.10866E-05 12548   0.357E-02    0.565E-03
DAV:  11    -0.377623062573E+02   -0.33895E-06   -0.20387E-06 13148   0.225E-02    0.246E-03
DAV:  12    -0.377623065013E+02   -0.24401E-06   -0.55196E-07 11736   0.668E-03    0.802E-04
DAV:  13    -0.377623065304E+02   -0.29110E-07   -0.71736E-08 11008   0.318E-03    0.508E-04
DAV:  14    -0.377623065545E+02   -0.24022E-07   -0.17564E-08  7232   0.151E-03    0.180E-04
DAV:  15    -0.377623065530E+02    0.14688E-08   -0.41705E-09  6096   0.121E-03
   2 F= -.37762307E+02 E0= -.37754395E+02  d E =0.101014E-01
 trial-energy change:    0.010101  1 .order   -0.012645   -0.220140    0.194849
 step:   0.4491(harm=  0.5305)  dis= 0.01997  next Energy=   -37.819780 (dE=-0.474E-01)
 bond charge predicted
       N       E                     dE             d eps       ncg     rms          rms(c)
DAV:   1    -0.379127088140E+02   -0.15040E+00   -0.12380E+01 11316   0.277E+01    0.308E+00
DAV:   2    -0.378496475199E+02    0.63061E-01   -0.16241E+00 12132   0.149E+01    0.132E+00
DAV:   3    -0.378302347128E+02    0.19413E-01   -0.14967E-01 13216   0.403E+00    0.736E-01
DAV:   4    -0.378204410474E+02    0.97937E-02   -0.34330E-02 11476   0.146E+00    0.280E-01
DAV:   5    -0.378189619343E+02    0.14791E-02   -0.56671E-03 14560   0.754E-01    0.624E-02
DAV:   6    -0.378190143352E+02   -0.52401E-04   -0.16699E-03 10844   0.406E-01    0.427E-02
DAV:   7    -0.378189930050E+02    0.21330E-04   -0.12540E-04 14880   0.132E-01    0.228E-02
DAV:   8    -0.378189892081E+02    0.37970E-05   -0.44347E-05 14984   0.771E-02    0.104E-02
DAV:   9    -0.378189888505E+02    0.35759E-06   -0.11977E-05 11780   0.427E-02    0.490E-03
DAV:  10    -0.378189888933E+02   -0.42848E-07   -0.24760E-06 12816   0.171E-02    0.274E-03
DAV:  11    -0.378189887620E+02    0.13129E-06   -0.49204E-07 12800   0.105E-02    0.847E-04
DAV:  12    -0.378189887213E+02    0.40700E-07   -0.13104E-07 10912   0.326E-03    0.545E-04
DAV:  13    -0.378189887045E+02    0.16877E-07   -0.21354E-08  7264   0.188E-03    0.203E-04
DAV:  14    -0.378189886968E+02    0.76893E-08   -0.74706E-09  6036   0.143E-03
   3 F= -.37818989E+02 E0= -.37809636E+02  d E =-.465808E-01
 curvature:  -0.26 expect dE=-0.267E-01 dE for cont linesearch -0.465E-05
 trial: gam= 0.48076 g(F)=  0.906E-01 g(S)=  0.132E-01 ort =-0.199E-02 (trialstep = 0.890E+00)
 search vector abs. value=  0.153E+00
 bond charge predicted
       N       E                     dE             d eps       ncg     rms          rms(c)
DAV:   1    -0.379312374895E+02   -0.11225E+00   -0.23294E+01 10360   0.295E+01    0.239E+00
DAV:   2    -0.379000565477E+02    0.31181E-01   -0.98395E-01 11164   0.106E+01    0.117E+00
DAV:   3    -0.378853203919E+02    0.14736E-01   -0.96214E-02 14244   0.313E+00    0.640E-01
DAV:   4    -0.378776610489E+02    0.76593E-02   -0.18216E-02 12996   0.145E+00    0.181E-01
DAV:   5    -0.378773865849E+02    0.27446E-03   -0.56737E-03 10708   0.761E-01    0.654E-02
DAV:   6    -0.378774212967E+02   -0.34712E-04   -0.10338E-03 12252   0.354E-01    0.404E-02
DAV:   7    -0.378774156879E+02    0.56089E-05   -0.12230E-04 11700   0.148E-01    0.192E-02
DAV:   8    -0.378774165633E+02   -0.87545E-06   -0.39368E-05 15392   0.111E-01    0.824E-03
DAV:   9    -0.378774171458E+02   -0.58251E-06   -0.10743E-05 11488   0.448E-02    0.441E-03
DAV:  10    -0.378774176227E+02   -0.47687E-06   -0.32998E-06 12796   0.128E-02    0.269E-03
DAV:  11    -0.378774176226E+02    0.87311E-10   -0.51649E-07 14388   0.669E-03    0.811E-04
DAV:  12    -0.378774176722E+02   -0.49564E-07   -0.12740E-07 10808   0.352E-03    0.322E-04
DAV:  13    -0.378774176847E+02   -0.12544E-07   -0.14322E-08  6236   0.185E-03    0.193E-04
DAV:  14    -0.378774176911E+02   -0.63601E-08   -0.48907E-09  5880   0.942E-04
   4 F= -.37877418E+02 E0= -.37869059E+02  d E =-.584290E-01
 trial-energy change:   -0.058429  1 .order   -0.058093   -0.091546   -0.024641
 step:   1.2047(harm=  1.2175)  dis= 0.05127  next Energy=   -37.881793 (dE=-0.628E-01)
 bond charge predicted
       N       E                     dE             d eps       ncg     rms          rms(c)
DAV:   1    -0.378891548401E+02   -0.11737E-01   -0.28844E+00 10328   0.101E+01    0.831E-01
DAV:   2    -0.378847392007E+02    0.44156E-02   -0.11323E-01 11356   0.349E+00    0.410E-01
DAV:   3    -0.378827710675E+02    0.19681E-02   -0.11536E-02 14460   0.112E+00    0.226E-01
DAV:   4    -0.378818278901E+02    0.94318E-03   -0.22725E-03 12936   0.515E-01    0.642E-02
DAV:   5    -0.378817938782E+02    0.34012E-04   -0.70112E-04 10684   0.261E-01    0.234E-02
DAV:   6    -0.378817971286E+02   -0.32504E-05   -0.12697E-04 12132   0.127E-01    0.146E-02
DAV:   7    -0.378817966421E+02    0.48655E-06   -0.16526E-05 11628   0.571E-02    0.708E-03
DAV:   8    -0.378817968423E+02   -0.20023E-06   -0.52231E-06 14752   0.397E-02    0.314E-03
DAV:   9    -0.378817969440E+02   -0.10170E-06   -0.14270E-06 11448   0.161E-02    0.163E-03
DAV:  10    -0.378817970446E+02   -0.10057E-06   -0.44529E-07 12728   0.474E-03    0.975E-04
DAV:  11    -0.378817970578E+02   -0.13187E-07   -0.60363E-08 11360   0.269E-03    0.298E-04
DAV:  12    -0.378817970738E+02   -0.15996E-07   -0.18402E-08  7700   0.118E-03    0.102E-04
DAV:  13    -0.378817970777E+02   -0.39263E-08   -0.32255E-09  5828   0.781E-04
   5 F= -.37881797E+02 E0= -.37873959E+02  d E =-.628084E-01
 curvature:  -0.90 expect dE=-0.312E-01 dE for cont linesearch -0.670E-07
 trial: gam= 0.23704 g(F)=  0.264E-01 g(S)=  0.814E-02 ort =-0.106E-03 (trialstep = 0.953E+00)
 search vector abs. value=  0.431E-01
 bond charge predicted
       N       E                     dE             d eps       ncg     rms          rms(c)
DAV:   1    -0.379051065298E+02   -0.23309E-01   -0.76619E+00  9996   0.156E+01    0.105E+00
DAV:   2    -0.379093422861E+02   -0.42358E-02   -0.22225E-01 11800   0.440E+00    0.647E-01
DAV:   3    -0.379048088045E+02    0.45335E-02   -0.17696E-02 12896   0.145E+00    0.303E-01
DAV:   4    -0.379033379742E+02    0.14708E-02   -0.50066E-03 11992   0.847E-01    0.721E-02
DAV:   5    -0.379034040491E+02   -0.66075E-04   -0.15753E-03 10796   0.365E-01    0.335E-02
DAV:   6    -0.379034034456E+02    0.60348E-06   -0.16367E-04 14224   0.150E-01    0.229E-02
DAV:   7    -0.379034005779E+02    0.28677E-05   -0.25163E-05 12384   0.876E-02    0.117E-02
DAV:   8    -0.379034007659E+02   -0.18801E-06   -0.11400E-05 14108   0.384E-02    0.396E-03
DAV:   9    -0.379034008093E+02   -0.43462E-07   -0.23585E-06 11628   0.188E-02    0.218E-03
DAV:  10    -0.379034008228E+02   -0.13502E-07   -0.86365E-07 14848   0.106E-02    0.144E-03
DAV:  11    -0.379034007900E+02    0.32824E-07   -0.15467E-07 12588   0.430E-03    0.359E-04
DAV:  12    -0.379034007894E+02    0.60618E-09   -0.33349E-08 10132   0.133E-03
   6 F= -.37903401E+02 E0= -.37895121E+02  d E =-.216037E-01
 trial-energy change:   -0.021604  1 .order   -0.021558   -0.032931   -0.010185
 step:   1.3794(harm=  1.3794)  dis= 0.03270  next Energy=   -37.905635 (dE=-0.238E-01)
 bond charge predicted
       N       E                     dE             d eps       ncg     rms          rms(c)
DAV:   1    -0.379059561946E+02   -0.25554E-02   -0.15386E+00 10004   0.702E+00    0.470E-01
DAV:   2    -0.379068078459E+02   -0.85165E-03   -0.45393E-02 11752   0.208E+00    0.297E-01
DAV:   3    -0.379059230499E+02    0.88480E-03   -0.37600E-03 12864   0.695E-01    0.140E-01
DAV:   4    -0.379056136647E+02    0.30939E-03   -0.10355E-03 11988   0.402E-01    0.329E-02
DAV:   5    -0.379056298884E+02   -0.16224E-04   -0.33450E-04 10868   0.173E-01    0.151E-02
DAV:   6    -0.379056299959E+02   -0.10755E-06   -0.33578E-05 14184   0.736E-02    0.105E-02
DAV:   7    -0.379056293657E+02    0.63024E-06   -0.54020E-06 12264   0.423E-02    0.520E-03
DAV:   8    -0.379056293862E+02   -0.20551E-07   -0.24660E-06 14348   0.167E-02    0.166E-03
DAV:   9    -0.379056293973E+02   -0.11092E-07   -0.46891E-07 11700   0.750E-03    0.961E-04
DAV:  10    -0.379056293910E+02    0.63355E-08   -0.14586E-07 14316   0.434E-03    0.625E-04
DAV:  11    -0.379056293790E+02    0.11969E-07   -0.24497E-08  7644   0.173E-03    0.200E-04
DAV:  12    -0.379056293772E+02    0.18176E-08   -0.99654E-09  6100   0.712E-04
   7 F= -.37905629E+02 E0= -.37897147E+02  d E =-.238323E-01
 curvature:  -0.86 expect dE=-0.385E-01 dE for cont linesearch -0.121E-05
 trial: gam= 1.31361 g(F)=  0.406E-01 g(S)=  0.416E-02 ort =-0.246E-03 (trialstep = 0.378E+00)
 search vector abs. value=  0.119E+00
 bond charge predicted
       N       E                     dE             d eps       ncg     rms          rms(c)
DAV:   1    -0.379135828585E+02   -0.79535E-02   -0.33085E+00  9940   0.105E+01    0.679E-01
DAV:   2    -0.379190875104E+02   -0.55047E-02   -0.13055E-01 12024   0.299E+00    0.385E-01
DAV:   3    -0.379174235975E+02    0.16639E-02   -0.10266E-02 12140   0.894E-01    0.239E-01
DAV:   4    -0.379165335340E+02    0.89006E-03   -0.30029E-03 11140   0.450E-01    0.730E-02
DAV:   5    -0.379165298018E+02    0.37322E-05   -0.72196E-04 11312   0.210E-01    0.288E-02
DAV:   6    -0.379165319048E+02   -0.21030E-05   -0.10209E-04 11520   0.112E-01    0.182E-02
DAV:   7    -0.379165308505E+02    0.10544E-05   -0.13636E-05 11904   0.710E-02    0.106E-02
DAV:   8    -0.379165314330E+02   -0.58256E-06   -0.69444E-06 12800   0.262E-02    0.291E-03
DAV:   9    -0.379165313463E+02    0.86781E-07   -0.15670E-06 11892   0.163E-02    0.169E-03
DAV:  10    -0.379165313975E+02   -0.51263E-07   -0.35575E-07 13140   0.583E-03    0.114E-03
DAV:  11    -0.379165314260E+02   -0.28442E-07   -0.70234E-08 12004   0.294E-03    0.306E-04
DAV:  12    -0.379165314377E+02   -0.11700E-07   -0.19762E-08  7888   0.111E-03    0.126E-04
DAV:  13    -0.379165314399E+02   -0.22596E-08   -0.33220E-09  5896   0.661E-04
   8 F= -.37916531E+02 E0= -.37908564E+02  d E =-.109021E-01
 trial-energy change:   -0.010902  1 .order   -0.010961   -0.016780   -0.005141
 step:   0.5524(harm=  0.5446)  dis= 0.01895  next Energy=   -37.917714 (dE=-0.121E-01)
 bond charge predicted
       N       E                     dE             d eps       ncg     rms          rms(c)
DAV:   1    -0.379171297454E+02   -0.59831E-03   -0.70580E-01  9944   0.482E+00    0.312E-01
DAV:   2    -0.379182690103E+02   -0.11393E-02   -0.27232E-02 12032   0.136E+00    0.176E-01
DAV:   3    -0.379179141854E+02    0.35482E-03   -0.22043E-03 12304   0.409E-01    0.109E-01
DAV:   4    -0.379177236247E+02    0.19056E-03   -0.63832E-04 10972   0.207E-01    0.321E-02
DAV:   5    -0.379177242001E+02   -0.57538E-06   -0.15488E-04 11336   0.947E-02    0.127E-02
DAV:   6    -0.379177245259E+02   -0.32581E-06   -0.20136E-05 11548   0.490E-02    0.819E-03
DAV:   7    -0.379177243866E+02    0.13932E-06   -0.27162E-06 11908   0.308E-02    0.485E-03
DAV:   8    -0.379177245802E+02   -0.19363E-06   -0.14349E-06 12816   0.123E-02    0.131E-03
DAV:   9    -0.379177245589E+02    0.21309E-07   -0.33116E-07 11824   0.774E-03    0.783E-04
DAV:  10    -0.379177245778E+02   -0.18877E-07   -0.70163E-08 11852   0.263E-03    0.502E-04
DAV:  11    -0.379177245934E+02   -0.15608E-07   -0.11888E-08  6108   0.144E-03    0.137E-04
DAV:  12    -0.379177245989E+02   -0.54420E-08   -0.56523E-09  5880   0.684E-04
   9 F= -.37917725E+02 E0= -.37910012E+02  d E =-.120952E-01
 curvature:  -0.72 expect dE=-0.124E-01 dE for cont linesearch -0.875E-07
 trial: gam= 0.33613 g(F)=  0.152E-01 g(S)=  0.187E-02 ort = 0.120E-03 (trialstep = 0.413E+00)
 search vector abs. value=  0.305E-01
 bond charge predicted
       N       E                     dE             d eps       ncg     rms          rms(c)
DAV:   1    -0.379231767998E+02   -0.54522E-02   -0.97181E-01  9896   0.544E+00    0.322E-01
DAV:   2    -0.379245353771E+02   -0.13586E-02   -0.29426E-02 13020   0.133E+00    0.193E-01
DAV:   3    -0.379240707864E+02    0.46459E-03   -0.19826E-03 11916   0.449E-01    0.111E-01
DAV:   4    -0.379238579566E+02    0.21283E-03   -0.62678E-04 11664   0.267E-01    0.256E-02
DAV:   5    -0.379238650023E+02   -0.70457E-05   -0.18296E-04 10908   0.116E-01    0.132E-02
DAV:   6    -0.379238648653E+02    0.13705E-06   -0.21153E-05 13068   0.535E-02    0.807E-03
DAV:   7    -0.379238645695E+02    0.29579E-06   -0.32883E-06 13084   0.332E-02    0.492E-03
DAV:   8    -0.379238645925E+02   -0.23060E-07   -0.15787E-06 12660   0.134E-02    0.143E-03
DAV:   9    -0.379238645918E+02    0.73169E-09   -0.40143E-07 12108   0.469E-03    0.793E-04
DAV:  10    -0.379238645984E+02   -0.65725E-08   -0.79847E-08 11304   0.288E-03
  10 F= -.37923865E+02 E0= -.37916704E+02  d E =-.614000E-02
 trial-energy change:   -0.006140  1 .order   -0.006143   -0.007054   -0.005232
 step:   1.5976(harm=  1.5976)  dis= 0.02888  next Energy=   -37.931379 (dE=-0.137E-01)
 bond charge predicted
       N       E                     dE             d eps       ncg     rms          rms(c)
DAV:   1    -0.379255131177E+02   -0.16485E-02   -0.80250E+00  9892   0.156E+01    0.924E-01
DAV:   2    -0.379366953725E+02   -0.11182E-01   -0.24061E-01 12792   0.378E+00    0.549E-01
DAV:   3    -0.379328401890E+02    0.38552E-02   -0.14822E-02 11912   0.123E+00    0.306E-01
DAV:   4    -0.379312531875E+02    0.15870E-02   -0.50221E-03 11844   0.784E-01    0.692E-02
DAV:   5    -0.379313163219E+02   -0.63134E-04   -0.14695E-03 10832   0.380E-01    0.377E-02
DAV:   6    -0.379313160532E+02    0.26878E-06   -0.18206E-04 12888   0.158E-01    0.228E-02
DAV:   7    -0.379313140184E+02    0.20348E-05   -0.29799E-05 12556   0.984E-02    0.140E-02
DAV:   8    -0.379313144803E+02   -0.46193E-06   -0.13900E-05 13716   0.410E-02    0.411E-03
DAV:   9    -0.379313144821E+02   -0.18108E-08   -0.31380E-06 11872   0.145E-02    0.230E-03
DAV:  10    -0.379313145434E+02   -0.61303E-07   -0.71580E-07 13976   0.994E-03    0.159E-03
DAV:  11    -0.379313145303E+02    0.13153E-07   -0.13278E-07 12500   0.285E-03    0.521E-04
DAV:  12    -0.379313145338E+02   -0.35220E-08   -0.47805E-08 10612   0.154E-03
  11 F= -.37931315E+02 E0= -.37925645E+02  d E =-.135899E-01
 curvature:  -1.43 expect dE=-0.823E-02 dE for cont linesearch -0.182E-05
 trial: gam= 0.35278 g(F)=  0.479E-02 g(S)=  0.979E-03 ort =-0.197E-03 (trialstep = 0.650E+00)
 search vector abs. value=  0.943E-02
 bond charge predicted
       N       E                     dE             d eps       ncg     rms          rms(c)
DAV:   1    -0.379342142618E+02   -0.28997E-02   -0.75929E-01 10060   0.512E+00    0.401E-01
DAV:   2    -0.379345990919E+02   -0.38483E-03   -0.29332E-02 12220   0.169E+00    0.238E-01
DAV:   3    -0.379338647556E+02    0.73434E-03   -0.24124E-03 12544   0.566E-01    0.118E-01
DAV:   4    -0.379336218544E+02    0.24290E-03   -0.91930E-04 11084   0.302E-01    0.259E-02
DAV:   5    -0.379336345194E+02   -0.12665E-04   -0.24398E-04 10836   0.152E-01    0.135E-02
DAV:   6    -0.379336339420E+02    0.57737E-06   -0.23624E-05 12304   0.681E-02    0.874E-03
DAV:   7    -0.379336331979E+02    0.74417E-06   -0.48979E-06 12052   0.446E-02    0.429E-03
DAV:   8    -0.379336331847E+02    0.13188E-07   -0.23685E-06 13328   0.159E-02    0.142E-03
DAV:   9    -0.379336331965E+02   -0.11849E-07   -0.39461E-07 10940   0.657E-03    0.952E-04
DAV:  10    -0.379336331758E+02    0.20702E-07   -0.67783E-08 12412   0.346E-03    0.418E-04
DAV:  11    -0.379336331574E+02    0.18407E-07   -0.14353E-08  6388   0.155E-03    0.959E-05
DAV:  12    -0.379336331553E+02    0.21319E-08   -0.43414E-09  5884   0.663E-04
  12 F= -.37933633E+02 E0= -.37927851E+02  d E =-.231862E-02
 trial-energy change:   -0.002319  1 .order   -0.002310   -0.003706   -0.000915
 step:   0.8579(harm=  0.8628)  dis= 0.00696  next Energy=   -37.933780 (dE=-0.247E-02)
 bond charge predicted
       N       E                     dE             d eps       ncg     rms          rms(c)
DAV:   1    -0.379338409738E+02   -0.20782E-03   -0.78115E-02 10028   0.165E+00    0.129E-01
DAV:   2    -0.379338806539E+02   -0.39680E-04   -0.30346E-03 12216   0.547E-01    0.766E-02
DAV:   3    -0.379338056605E+02    0.74993E-04   -0.24865E-04 12532   0.183E-01    0.380E-02
DAV:   4    -0.379337809808E+02    0.24680E-04   -0.94305E-05 11112   0.974E-02    0.829E-03
DAV:   5    -0.379337822246E+02   -0.12437E-05   -0.25217E-05 10816   0.489E-02    0.439E-03
DAV:   6    -0.379337821366E+02    0.87995E-07   -0.24049E-06 12316   0.217E-02    0.283E-03
DAV:   7    -0.379337820201E+02    0.11646E-06   -0.50170E-07 12052   0.142E-02    0.139E-03
DAV:   8    -0.379337819882E+02    0.31894E-07   -0.24166E-07 13308   0.502E-03    0.449E-04
DAV:   9    -0.379337819899E+02   -0.16780E-08   -0.38931E-08  8192   0.208E-03
  13 F= -.37933782E+02 E0= -.37927964E+02  d E =-.246746E-02
 curvature:  -0.71 expect dE=-0.483E-02 dE for cont linesearch -0.355E-08
 trial: gam= 1.17343 g(F)=  0.557E-02 g(S)=  0.121E-02 ort = 0.686E-05 (trialstep = 0.330E+00)
 search vector abs. value=  0.198E-01
 bond charge predicted
       N       E                     dE             d eps       ncg     rms          rms(c)
DAV:   1    -0.379358392682E+02   -0.20573E-02   -0.42969E-01  9892   0.378E+00    0.256E-01
DAV:   2    -0.379360554396E+02   -0.21617E-03   -0.12146E-02 11516   0.109E+00    0.141E-01
DAV:   3    -0.379357927017E+02    0.26274E-03   -0.10434E-03 12492   0.363E-01    0.689E-02
DAV:   4    -0.379357182978E+02    0.74404E-04   -0.24366E-04 12908   0.215E-01    0.130E-02
DAV:   5    -0.379357236183E+02   -0.53205E-05   -0.84465E-05 10792   0.769E-02    0.758E-03
DAV:   6    -0.379357237609E+02   -0.14255E-06   -0.66450E-06 12816   0.278E-02    0.515E-03
DAV:   7    -0.379357237733E+02   -0.12435E-07   -0.98987E-07 12808   0.179E-02    0.255E-03
DAV:   8    -0.379357238579E+02   -0.84643E-07   -0.39607E-07 11676   0.905E-03    0.660E-04
DAV:   9    -0.379357238680E+02   -0.10042E-07   -0.11906E-07 11532   0.361E-03    0.426E-04
DAV:  10    -0.379357238742E+02   -0.61900E-08   -0.16009E-08  6416   0.231E-03
  14 F= -.37935724E+02 E0= -.37929924E+02  d E =-.194188E-02
 trial-energy change:   -0.001942  1 .order   -0.001939   -0.002236   -0.001642
 step:   1.2408(harm=  1.2408)  dis= 0.01184  next Energy=   -37.937990 (dE=-0.421E-02)
 bond charge predicted
       N       E                     dE             d eps       ncg     rms          rms(c)
DAV:   1    -0.379386824642E+02   -0.29586E-02   -0.32846E+00  9892   0.105E+01    0.708E-01
DAV:   2    -0.379405107779E+02   -0.18283E-02   -0.94280E-02 11524   0.306E+00    0.390E-01
DAV:   3    -0.379385288921E+02    0.19819E-02   -0.81501E-03 12544   0.105E+00    0.193E-01
DAV:   4    -0.379379523793E+02    0.57651E-03   -0.19486E-03 12780   0.598E-01    0.371E-02
DAV:   5    -0.379379929495E+02   -0.40570E-04   -0.65727E-04 10824   0.203E-01    0.211E-02
DAV:   6    -0.379379937839E+02   -0.83441E-06   -0.46330E-05 13028   0.629E-02    0.142E-02
DAV:   7    -0.379379935951E+02    0.18882E-06   -0.67563E-06 13000   0.385E-02    0.665E-03
DAV:   8    -0.379379939551E+02   -0.36005E-06   -0.25139E-06 11496   0.227E-02    0.179E-03
DAV:   9    -0.379379940118E+02   -0.56652E-07   -0.78820E-07 12012   0.100E-02    0.115E-03
DAV:  10    -0.379379940291E+02   -0.17334E-07   -0.13709E-07 13264   0.591E-03    0.629E-04
DAV:  11    -0.379379940411E+02   -0.12012E-07   -0.45933E-08 10720   0.209E-03    0.238E-04
DAV:  12    -0.379379940451E+02   -0.39358E-08   -0.10407E-08  5996   0.778E-04
  15 F= -.37937994E+02 E0= -.37932234E+02  d E =-.421206E-02
 curvature:  -1.81 expect dE=-0.520E-02 dE for cont linesearch -0.428E-08
 trial: gam= 0.45904 g(F)=  0.260E-02 g(S)=  0.278E-03 ort = 0.684E-05 (trialstep = 0.512E+00)
 search vector abs. value=  0.705E-02
 bond charge predicted
       N       E                     dE             d eps       ncg     rms          rms(c)
DAV:   1    -0.379392854180E+02   -0.12914E-02   -0.36877E-01 10024   0.343E+00    0.218E-01
DAV:   2    -0.379396003203E+02   -0.31490E-03   -0.98484E-03 11528   0.927E-01    0.132E-01
DAV:   3    -0.379393439134E+02    0.25641E-03   -0.83973E-04 13484   0.449E-01    0.571E-02
DAV:   4    -0.379392945065E+02    0.49407E-04   -0.21095E-04 12060   0.290E-01    0.112E-02
DAV:   5    -0.379393009512E+02   -0.64447E-05   -0.83855E-05 10828   0.883E-02    0.846E-03
DAV:   6    -0.379393009794E+02   -0.28138E-07   -0.80746E-06 12280   0.350E-02    0.465E-03
DAV:   7    -0.379393008661E+02    0.11330E-06   -0.14793E-06 12888   0.269E-02    0.277E-03
DAV:   8    -0.379393008782E+02   -0.12100E-07   -0.76570E-07 12448   0.914E-03    0.872E-04
DAV:   9    -0.379393008672E+02    0.10975E-07   -0.12224E-07 14244   0.592E-03    0.492E-04
DAV:  10    -0.379393008679E+02   -0.75670E-09   -0.39467E-08  9164   0.212E-03
  16 F= -.37939301E+02 E0= -.37933721E+02  d E =-.130682E-02
 trial-energy change:   -0.001307  1 .order   -0.001302   -0.001472   -0.001132
 step:   1.8243(harm=  2.2132)  dis= 0.01229  next Energy=   -37.940831 (dE=-0.284E-02)
 bond charge predicted
       N       E                     dE             d eps       ncg     rms          rms(c)
DAV:   1    -0.379409560441E+02   -0.16552E-02   -0.24226E+00 10020   0.879E+00    0.560E-01
DAV:   2    -0.379430387771E+02   -0.20827E-02   -0.64646E-02 11576   0.237E+00    0.337E-01
DAV:   3    -0.379413350075E+02    0.17038E-02   -0.54213E-03 13424   0.116E+00    0.146E-01
DAV:   4    -0.379410202385E+02    0.31477E-03   -0.14120E-03 12152   0.755E-01    0.287E-02
DAV:   5    -0.379410628514E+02   -0.42613E-04   -0.54774E-04 10816   0.226E-01    0.221E-02
DAV:   6    -0.379410633155E+02   -0.46409E-06   -0.52798E-05 12356   0.908E-02    0.120E-02
DAV:   7    -0.379410627835E+02    0.53204E-06   -0.10365E-05 13436   0.701E-02    0.694E-03
DAV:   8    -0.379410629659E+02   -0.18246E-06   -0.50124E-06 12904   0.258E-02    0.232E-03
DAV:   9    -0.379410629087E+02    0.57226E-07   -0.88664E-07 15940   0.162E-02    0.129E-03
DAV:  10    -0.379410629202E+02   -0.11476E-07   -0.29103E-07 12980   0.479E-03    0.755E-04
DAV:  11    -0.379410629196E+02    0.56798E-09   -0.10158E-07 11820   0.500E-03    0.362E-04
DAV:  12    -0.379410629186E+02    0.10641E-08   -0.11827E-08  5972   0.231E-03
  17 F= -.37941063E+02 E0= -.37935924E+02  d E =-.306887E-02
 curvature:  -2.57 expect dE=-0.633E-02 dE for cont linesearch -0.775E-04
 trial: gam= 0.71164 g(F)=  0.224E-02 g(S)=  0.227E-03 ort = 0.461E-03 (trialstep = 0.774E+00)
 search vector abs. value=  0.669E-02
 bond charge predicted
       N       E                     dE             d eps       ncg     rms          rms(c)
DAV:   1    -0.379412703441E+02   -0.20742E-03   -0.85185E-01  9984   0.519E+00    0.273E-01
DAV:   2    -0.379428762159E+02   -0.16059E-02   -0.26260E-02 11672   0.128E+00    0.163E-01
DAV:   3    -0.379425290426E+02    0.34717E-03   -0.14450E-03 13312   0.391E-01    0.865E-02
DAV:   4    -0.379423858869E+02    0.14316E-03   -0.49440E-04 11604   0.242E-01    0.206E-02
DAV:   5    -0.379423951804E+02   -0.92935E-05   -0.14871E-04 11128   0.118E-01    0.119E-02
DAV:   6    -0.379423946471E+02    0.53330E-06   -0.14254E-05 12040   0.512E-02    0.746E-03
DAV:   7    -0.379423938889E+02    0.75819E-06   -0.34543E-06 13524   0.359E-02    0.309E-03
DAV:   8    -0.379423938854E+02    0.35043E-08   -0.14109E-06 11860   0.141E-02    0.114E-03
DAV:   9    -0.379423938811E+02    0.43588E-08   -0.18762E-07 11924   0.498E-03    0.661E-04
DAV:  10    -0.379423938623E+02    0.18734E-07   -0.34977E-08  8896   0.251E-03    0.239E-04
DAV:  11    -0.379423938574E+02    0.49477E-08   -0.91830E-09  5892   0.144E-03
  18 F= -.37942394E+02 E0= -.37937280E+02  d E =-.133094E-02
 trial-energy change:   -0.001331  1 .order   -0.001331   -0.002162   -0.000501
 step:   1.0077(harm=  1.0077)  dis= 0.00676  next Energy=   -37.942470 (dE=-0.141E-02)
 bond charge predicted
       N       E                     dE             d eps       ncg     rms          rms(c)
DAV:   1    -0.379423643562E+02    0.29506E-04   -0.77352E-02  9976   0.157E+00    0.822E-02
DAV:   2    -0.379425092042E+02   -0.14485E-03   -0.23785E-03 11664   0.387E-01    0.492E-02
DAV:   3    -0.379424779822E+02    0.31222E-04   -0.13191E-04 13440   0.119E-01    0.261E-02
DAV:   4    -0.379424650498E+02    0.12932E-04   -0.44485E-05 11564   0.722E-02    0.618E-03
DAV:   5    -0.379424658323E+02   -0.78246E-06   -0.13567E-05 11164   0.359E-02    0.361E-03
DAV:   6    -0.379424657750E+02    0.57237E-07   -0.12922E-06 11984   0.157E-02    0.226E-03
DAV:   7    -0.379424656780E+02    0.96999E-07   -0.30936E-07 13468   0.108E-02    0.945E-04
DAV:   8    -0.379424656586E+02    0.19429E-07   -0.13051E-07 11752   0.423E-03    0.345E-04
DAV:   9    -0.379424656548E+02    0.38067E-08   -0.15659E-08  6432   0.161E-03
  19 F= -.37942466E+02 E0= -.37937359E+02  d E =-.140274E-02
 curvature:  -1.21 expect dE=-0.437E-02 dE for cont linesearch -0.269E-07
 trial: gam= 1.66310 g(F)=  0.301E-02 g(S)=  0.610E-03 ort =-0.122E-04 (trialstep = 0.249E+00)
 search vector abs. value=  0.221E-01
 bond charge predicted
       N       E                     dE             d eps       ncg     rms          rms(c)
DAV:   1    -0.379428743857E+02   -0.40873E-03   -0.29685E-01  9976   0.308E+00    0.147E-01
DAV:   2    -0.379433768897E+02   -0.50250E-03   -0.83588E-03 10948   0.804E-01    0.781E-02
DAV:   3    -0.379433259849E+02    0.50905E-04   -0.54304E-04 12904   0.270E-01    0.418E-02
DAV:   4    -0.379432934651E+02    0.32520E-04   -0.98409E-05 13272   0.151E-01    0.102E-02
DAV:   5    -0.379432950545E+02   -0.15894E-05   -0.37488E-05 10736   0.472E-02    0.478E-03
DAV:   6    -0.379432949737E+02    0.80830E-07   -0.27938E-06 13648   0.144E-02    0.302E-03
DAV:   7    -0.379432949208E+02    0.52955E-07   -0.37631E-07 10996   0.485E-03    0.126E-03
DAV:   8    -0.379432949281E+02   -0.73642E-08   -0.12848E-07 12080   0.331E-03    0.386E-04
DAV:   9    -0.379432949311E+02   -0.29745E-08   -0.18344E-08  6152   0.138E-03
  20 F= -.37943295E+02 E0= -.37938272E+02  d E =-.829276E-03
 ZBRENT: can't locate minimum, use default step
 trial-energy change:   -0.000829  1 .order   -0.000829   -0.000895   -0.000763
 step:   0.9951(harm=  1.6909)  dis= 0.01245  next Energy=   -37.945506 (dE=-0.304E-02)
 bond charge predicted
       N       E                     dE             d eps       ncg     rms          rms(c)
DAV:   1    -0.379410254485E+02    0.22695E-02   -0.26729E+00  9972   0.926E+00    0.443E-01
DAV:   2    -0.379457587552E+02   -0.47333E-02   -0.77219E-02 11492   0.245E+00    0.237E-01
DAV:   3    -0.379452580950E+02    0.50066E-03   -0.44154E-03 12772   0.793E-01    0.126E-01
DAV:   4    -0.379449631248E+02    0.29497E-03   -0.88078E-04 13112   0.424E-01    0.307E-02
DAV:   5    -0.379449775763E+02   -0.14452E-04   -0.32539E-04 10712   0.135E-01    0.144E-02
DAV:   6    -0.379449768898E+02    0.68658E-06   -0.22671E-05 13744   0.416E-02    0.895E-03
DAV:   7    -0.379449763924E+02    0.49738E-06   -0.31715E-06 11024   0.140E-02    0.356E-03
DAV:   8    -0.379449764984E+02   -0.10597E-06   -0.10937E-06 13244   0.955E-03    0.118E-03
DAV:   9    -0.379449765192E+02   -0.20812E-07   -0.18445E-07 11692   0.454E-03    0.671E-04
DAV:  10    -0.379449765290E+02   -0.98207E-08   -0.38059E-08 10588   0.260E-03
  21 F= -.37944977E+02 E0= -.37940198E+02  d E =-.251087E-02
 curvature:  -3.98 expect dE=-0.125E-01 dE for cont linesearch -0.387E-03
 ZBRENT: increasing intervall
 opt :   2.4877  next Energy=   -37.944771 (dE=-0.231E-02)
 bond charge predicted
       N       E                     dE             d eps       ncg     rms          rms(c)
DAV:   1    -0.379275898449E+02    0.17387E-01   -0.10698E+01  9976   0.187E+01    0.887E-01
DAV:   2    -0.379478830915E+02   -0.20293E-01   -0.32183E-01 11628   0.504E+00    0.481E-01
DAV:   3    -0.379458779963E+02    0.20051E-02   -0.17524E-02 12672   0.158E+00    0.254E-01
DAV:   4    -0.379446846824E+02    0.11933E-02   -0.36714E-03 13140   0.810E-01    0.648E-02
DAV:   5    -0.379447314168E+02   -0.46734E-04   -0.12578E-03 10688   0.256E-01    0.285E-02
DAV:   6    -0.379447298444E+02    0.15724E-05   -0.85868E-05 13540   0.789E-02    0.182E-02
DAV:   7    -0.379447275971E+02    0.22474E-05   -0.11272E-05 11360   0.303E-02    0.703E-03
DAV:   8    -0.379447279505E+02   -0.35339E-06   -0.44803E-06 12520   0.207E-02    0.244E-03
DAV:   9    -0.379447280298E+02   -0.79353E-07   -0.10533E-06 11140   0.986E-03    0.162E-03
DAV:  10    -0.379447280602E+02   -0.30407E-07   -0.18839E-07 11264   0.689E-03    0.743E-04
DAV:  11    -0.379447280766E+02   -0.16326E-07   -0.60065E-08 12120   0.377E-03    0.261E-04
DAV:  12    -0.379447280804E+02   -0.38376E-08   -0.11283E-08  6100   0.107E-03
  22 F= -.37944728E+02 E0= -.37940407E+02  d E =-.226243E-02
 curvature:   2.11 expect dE= 0.204E-01 dE for cont linesearch  0.303E-03
 ZBRENT: bracketing found
 ZBRENT: interpolating
 opt :   1.6689  next Energy=   -37.945470 (dE=-0.300E-02)
 bond charge predicted
       N       E                     dE             d eps       ncg     rms          rms(c)
DAV:   1    -0.379409516465E+02    0.37764E-02   -0.32083E+00  9960   0.100E+01    0.479E-01
DAV:   2    -0.379464225407E+02   -0.54709E-02   -0.90151E-02 11672   0.252E+00    0.254E-01
DAV:   3    -0.379457818774E+02    0.64066E-03   -0.46321E-03 13016   0.737E-01    0.136E-01
DAV:   4    -0.379454321819E+02    0.34970E-03   -0.87783E-04 13336   0.450E-01    0.316E-02
DAV:   5    -0.379454513617E+02   -0.19180E-04   -0.37832E-04 10724   0.159E-01    0.169E-02
DAV:   6    -0.379454508777E+02    0.48407E-06   -0.32385E-05 12804   0.482E-02    0.105E-02
DAV:   7    -0.379454501069E+02    0.77076E-06   -0.38568E-06 11084   0.165E-02    0.536E-03
DAV:   8    -0.379454501137E+02   -0.67589E-08   -0.16400E-06 13828   0.119E-02    0.129E-03
DAV:   9    -0.379454501331E+02   -0.19423E-07   -0.31727E-07 11156   0.617E-03    0.733E-04
DAV:  10    -0.379454501353E+02   -0.21628E-08   -0.64357E-08 10876   0.287E-03
  23 F= -.37945450E+02 E0= -.37940885E+02  d E =-.298448E-02
 curvature:  -3.44 expect dE=-0.173E-01 dE for cont linesearch -0.338E-08
 trial: gam= 0.95246 g(F)=  0.319E-02 g(S)=  0.183E-02 ort = 0.466E-05 (trialstep = 0.469E+00)
 search vector abs. value=  0.251E-01
 bond charge predicted
       N       E                     dE             d eps       ncg     rms          rms(c)
DAV:   1    -0.379452517063E+02    0.19843E-03   -0.12012E+00 10080   0.617E+00    0.280E-01
DAV:   2    -0.379475342460E+02   -0.22825E-02   -0.35109E-02 11344   0.157E+00    0.154E-01
DAV:   3    -0.379473586236E+02    0.17562E-03   -0.19004E-03 13264   0.466E-01    0.836E-02
DAV:   4    -0.379472290237E+02    0.12960E-03   -0.39548E-04 13192   0.267E-01    0.237E-02
DAV:   5    -0.379472364126E+02   -0.73889E-05   -0.15182E-04 10696   0.120E-01    0.108E-02
DAV:   6    -0.379472361790E+02    0.23359E-06   -0.11199E-05 13100   0.354E-02    0.594E-03
DAV:   7    -0.379472358872E+02    0.29183E-06   -0.20849E-06 13440   0.204E-02    0.215E-03
DAV:   8    -0.379472359120E+02   -0.24891E-07   -0.59447E-07 12680   0.118E-02    0.773E-04
DAV:   9    -0.379472359138E+02   -0.17458E-08   -0.12756E-07 12756   0.390E-03    0.526E-04
DAV:  10    -0.379472359115E+02    0.22987E-08   -0.13801E-08  6284   0.195E-03
  24 F= -.37947236E+02 E0= -.37942945E+02  d E =-.178578E-02
 trial-energy change:   -0.001786  1 .order   -0.001787   -0.002359   -0.001215
 step:   0.9676(harm=  0.9676)  dis= 0.01298  next Energy=   -37.947882 (dE=-0.243E-02)
 bond charge predicted
       N       E                     dE             d eps       ncg     rms          rms(c)
DAV:   1    -0.379456325327E+02    0.16034E-02   -0.13524E+00 10072   0.655E+00    0.297E-01
DAV:   2    -0.379482198389E+02   -0.25873E-02   -0.39756E-02 11396   0.167E+00    0.164E-01
DAV:   3    -0.379480190184E+02    0.20082E-03   -0.21132E-03 13256   0.492E-01    0.887E-02
DAV:   4    -0.379478727409E+02    0.14628E-03   -0.44495E-04 13152   0.284E-01    0.251E-02
DAV:   5    -0.379478810818E+02   -0.83409E-05   -0.17120E-04 10708   0.128E-01    0.115E-02
DAV:   6    -0.379478808029E+02    0.27889E-06   -0.12545E-05 13004   0.382E-02    0.632E-03
DAV:   7    -0.379478804776E+02    0.32529E-06   -0.24153E-06 13524   0.231E-02    0.229E-03
DAV:   8    -0.379478805051E+02   -0.27535E-07   -0.67790E-07 12656   0.130E-02    0.819E-04
DAV:   9    -0.379478805092E+02   -0.40795E-08   -0.14947E-07 12896   0.402E-03    0.564E-04
DAV:  10    -0.379478805062E+02    0.30641E-08   -0.15039E-08  6340   0.213E-03
  25 F= -.37947881E+02 E0= -.37943861E+02  d E =-.243037E-02
 curvature:  -2.41 expect dE=-0.103E-01 dE for cont linesearch -0.327E-08
 trial: gam= 0.85163 g(F)=  0.332E-02 g(S)=  0.932E-03 ort =-0.583E-05 (trialstep = 0.569E+00)
 search vector abs. value=  0.224E-01
 bond charge predicted
       N       E                     dE             d eps       ncg     rms          rms(c)
DAV:   1    -0.379491077190E+02   -0.12272E-02   -0.15935E+00 10040   0.784E+00    0.573E-01
DAV:   2    -0.379503291004E+02   -0.12214E-02   -0.82174E-02 10900   0.322E+00    0.252E-01
DAV:   3    -0.379498635720E+02    0.46553E-03   -0.58429E-03 12884   0.905E-01    0.130E-01
DAV:   4    -0.379495311639E+02    0.33241E-03   -0.95149E-04 12500   0.386E-01    0.402E-02
DAV:   5    -0.379495256869E+02    0.54770E-05   -0.31296E-04 10660   0.133E-01    0.130E-02
DAV:   6    -0.379495254166E+02    0.27025E-06   -0.26284E-05 12692   0.515E-02    0.830E-03
DAV:   7    -0.379495248587E+02    0.55793E-06   -0.30143E-06 12512   0.317E-02    0.505E-03
DAV:   8    -0.379495245323E+02    0.32638E-06   -0.14495E-06 13740   0.181E-02    0.118E-03
DAV:   9    -0.379495245402E+02   -0.78435E-08   -0.45194E-07 10812   0.812E-03    0.760E-04
DAV:  10    -0.379495245261E+02    0.14100E-07   -0.78510E-08 12172   0.299E-03    0.493E-04
DAV:  11    -0.379495245045E+02    0.21582E-07   -0.12984E-08  6136   0.180E-03    0.191E-04
DAV:  12    -0.379495244963E+02    0.82255E-08   -0.53349E-09  5876   0.919E-04
  26 F= -.37949524E+02 E0= -.37945639E+02  d E =-.164399E-02
 trial-energy change:   -0.001644  1 .order   -0.001650   -0.002419   -0.000881
 step:   0.9069(harm=  0.8948)  dis= 0.01215  next Energy=   -37.949785 (dE=-0.190E-02)
 bond charge predicted
       N       E                     dE             d eps       ncg     rms          rms(c)
DAV:   1    -0.379496130784E+02   -0.88574E-04   -0.56242E-01 10036   0.467E+00    0.340E-01
DAV:   2    -0.379500505932E+02   -0.43751E-03   -0.29079E-02 10888   0.192E+00    0.150E-01
DAV:   3    -0.379498894842E+02    0.16111E-03   -0.20741E-03 12960   0.538E-01    0.771E-02
DAV:   4    -0.379497721718E+02    0.11731E-03   -0.33547E-04 12568   0.230E-01    0.239E-02
DAV:   5    -0.379497703433E+02    0.18285E-05   -0.10958E-04 10660   0.781E-02    0.775E-03
DAV:   6    -0.379497702333E+02    0.11000E-06   -0.91191E-06 12656   0.304E-02    0.492E-03
DAV:   7    -0.379497700027E+02    0.23054E-06   -0.10413E-06 12488   0.188E-02    0.295E-03
DAV:   8    -0.379497698487E+02    0.15402E-06   -0.50122E-07 13828   0.106E-02    0.694E-04
DAV:   9    -0.379497698471E+02    0.16657E-08   -0.15495E-07 10800   0.464E-03    0.451E-04
DAV:  10    -0.379497698373E+02    0.97807E-08   -0.20721E-08  6692   0.177E-03
  27 F= -.37949770E+02 E0= -.37945962E+02  d E =-.188933E-02
 curvature:  -2.36 expect dE=-0.104E-01 dE for cont linesearch -0.646E-06
 trial: gam= 1.04340 g(F)=  0.331E-02 g(S)=  0.110E-02 ort =-0.784E-04 (trialstep = 0.498E+00)
 search vector abs. value=  0.286E-01
 bond charge predicted
       N       E                     dE             d eps       ncg     rms          rms(c)
DAV:   1    -0.379484572490E+02    0.13126E-02   -0.16642E+00  9876   0.684E+00    0.260E-01
DAV:   2    -0.379519133880E+02   -0.34561E-02   -0.43907E-02 11676   0.141E+00    0.129E-01
DAV:   3    -0.379517488455E+02    0.16454E-03   -0.13751E-03 12484   0.372E-01    0.770E-02
DAV:   4    -0.379516385792E+02    0.11027E-03   -0.34441E-04 13516   0.217E-01    0.242E-02
DAV:   5    -0.379516433492E+02   -0.47700E-05   -0.14847E-04 10704   0.107E-01    0.118E-02
DAV:   6    -0.379516433443E+02    0.49208E-08   -0.18601E-05 13596   0.359E-02    0.667E-03
DAV:   7    -0.379516431193E+02    0.22494E-06   -0.24007E-06 12660   0.186E-02    0.439E-03
DAV:   8    -0.379516430486E+02    0.70680E-07   -0.10676E-06 13520   0.169E-02    0.129E-03
DAV:   9    -0.379516430499E+02   -0.12128E-08   -0.33869E-07 12428   0.818E-03    0.598E-04
DAV:  10    -0.379516430487E+02    0.12083E-08   -0.65264E-08 11772   0.251E-03
  28 F= -.37951643E+02 E0= -.37947935E+02  d E =-.187321E-02
 trial-energy change:   -0.001873  1 .order   -0.001877   -0.002154   -0.001599
 step:   1.9338(harm=  1.9338)  dis= 0.03225  next Energy=   -37.953950 (dE=-0.418E-02)
 bond charge predicted
       N       E                     dE             d eps       ncg     rms          rms(c)
DAV:   1    -0.379256989006E+02    0.25944E-01   -0.13778E+01  9884   0.196E+01    0.760E-01
DAV:   2    -0.379563248560E+02   -0.30626E-01   -0.38810E-01 11660   0.399E+00    0.374E-01
DAV:   3    -0.379548896211E+02    0.14352E-02   -0.12337E-02 12644   0.105E+00    0.228E-01
DAV:   4    -0.379539845248E+02    0.90510E-03   -0.35264E-03 12940   0.587E-01    0.668E-02
DAV:   5    -0.379540234477E+02   -0.38923E-04   -0.12961E-03 10664   0.344E-01    0.374E-02
DAV:   6    -0.379540258376E+02   -0.23899E-05   -0.17758E-04 12724   0.116E-01    0.204E-02
DAV:   7    -0.379540238178E+02    0.20199E-05   -0.20778E-05 12528   0.456E-02    0.137E-02
DAV:   8    -0.379540228955E+02    0.92227E-06   -0.77830E-06 12956   0.329E-02    0.417E-03
DAV:   9    -0.379540229105E+02   -0.15028E-07   -0.28171E-06 12452   0.143E-02    0.188E-03
DAV:  10    -0.379540229311E+02   -0.20625E-07   -0.49703E-07 11608   0.503E-03    0.129E-03
DAV:  11    -0.379540229197E+02    0.11398E-07   -0.52374E-08 10736   0.214E-03    0.644E-04
DAV:  12    -0.379540229093E+02    0.10472E-07   -0.20521E-08  7560   0.199E-03    0.174E-04
DAV:  13    -0.379540229077E+02    0.15802E-08   -0.93179E-09  5924   0.123E-03
  29 F= -.37954023E+02 E0= -.37950569E+02  d E =-.425307E-02
 curvature:  -6.41 expect dE=-0.377E-01 dE for cont linesearch -0.509E-05
 trial: gam= 1.25896 g(F)=  0.501E-02 g(S)=  0.877E-03 ort = 0.151E-03 (trialstep = 0.435E+00)
 search vector abs. value=  0.517E-01
 bond charge predicted
       N       E                     dE             d eps       ncg     rms          rms(c)
DAV:   1    -0.379510312084E+02    0.29917E-02   -0.22882E+00  9900   0.798E+00    0.264E-01
DAV:   2    -0.379564058395E+02   -0.53746E-02   -0.60768E-02 11592   0.167E+00    0.141E-01
DAV:   3    -0.379562933541E+02    0.11249E-03   -0.19818E-03 12568   0.449E-01    0.864E-02
DAV:   4    -0.379561814235E+02    0.11193E-03   -0.42344E-04 11416   0.217E-01    0.368E-02
DAV:   5    -0.379561763619E+02    0.50616E-05   -0.15232E-04 11048   0.117E-01    0.131E-02
DAV:   6    -0.379561772879E+02   -0.92603E-06   -0.21363E-05 12352   0.473E-02    0.804E-03
DAV:   7    -0.379561770131E+02    0.27476E-06   -0.25821E-06 11776   0.276E-02    0.434E-03
DAV:   8    -0.379561769732E+02    0.39985E-07   -0.11506E-06 12576   0.160E-02    0.102E-03
DAV:   9    -0.379561769955E+02   -0.22322E-07   -0.24762E-07 11460   0.563E-03    0.565E-04
DAV:  10    -0.379561770055E+02   -0.10008E-07   -0.38217E-08  9208   0.197E-03    0.299E-04
DAV:  11    -0.379561770100E+02   -0.44702E-08   -0.54977E-09  6016   0.147E-03
  30 F= -.37956177E+02 E0= -.37952852E+02  d E =-.215410E-02
 trial-energy change:   -0.002154  1 .order   -0.002161   -0.002648   -0.001675
 step:   1.2943(harm=  1.1844)  dis= 0.03028  next Energy=   -37.957775 (dE=-0.375E-02)
 bond charge predicted
       N       E                     dE             d eps       ncg     rms          rms(c)
DAV:   1    -0.379360303431E+02    0.20147E-01   -0.88888E+00  9896   0.158E+01    0.532E-01
DAV:   2    -0.379584854701E+02   -0.22455E-01   -0.25331E-01 11600   0.346E+00    0.292E-01
DAV:   3    -0.379581036889E+02    0.38178E-03   -0.89739E-03 12708   0.976E-01    0.176E-01
DAV:   4    -0.379576662650E+02    0.43742E-03   -0.19101E-03 11332   0.422E-01    0.794E-02
DAV:   5    -0.379576325744E+02    0.33691E-04   -0.59408E-04 11340   0.230E-01    0.271E-02
DAV:   6    -0.379576372709E+02   -0.46965E-05   -0.85788E-05 12260   0.907E-02    0.160E-02
DAV:   7    -0.379576360657E+02    0.12053E-05   -0.93795E-06 11852   0.529E-02    0.898E-03
DAV:   8    -0.379576357286E+02    0.33707E-06   -0.45152E-06 12524   0.303E-02    0.193E-03
DAV:   9    -0.379576358470E+02   -0.11836E-06   -0.12445E-06 11760   0.111E-02    0.119E-03
DAV:  10    -0.379576358720E+02   -0.25064E-07   -0.14500E-07 12004   0.398E-03    0.621E-04
DAV:  11    -0.379576358798E+02   -0.77926E-08   -0.23981E-08  7472   0.246E-03
  31 F= -.37957636E+02 E0= -.37954531E+02  d E =-.361297E-02
 curvature:  -4.92 expect dE=-0.715E-01 dE for cont linesearch -0.216E-04
 trial: gam= 2.61107 g(F)=  0.118E-01 g(S)=  0.277E-02 ort =-0.476E-03 (trialstep = 0.861E-01)
 search vector abs. value=  0.364E+00
 bond charge predicted
       N       E                     dE             d eps       ncg     rms          rms(c)
DAV:   1    -0.379574363887E+02    0.19948E-03   -0.63831E-01  9900   0.419E+00    0.147E-01
DAV:   2    -0.379588150928E+02   -0.13787E-02   -0.16534E-02 11268   0.862E-01    0.662E-02
DAV:   3    -0.379587846655E+02    0.30427E-04   -0.51478E-04 12500   0.230E-01    0.412E-02
DAV:   4    -0.379587567573E+02    0.27908E-04   -0.10717E-04 14268   0.126E-01    0.150E-02
DAV:   5    -0.379587569978E+02   -0.24049E-06   -0.40401E-05 10756   0.545E-02    0.601E-03
DAV:   6    -0.379587571647E+02   -0.16688E-06   -0.47435E-06 12540   0.159E-02    0.360E-03
DAV:   7    -0.379587570920E+02    0.72694E-07   -0.56981E-07 13488   0.778E-03    0.209E-03
DAV:   8    -0.379587570536E+02    0.38409E-07   -0.24954E-07 13432   0.709E-03    0.491E-04
DAV:   9    -0.379587570568E+02   -0.32624E-08   -0.90558E-08 10960   0.244E-03
  32 F= -.37958757E+02 E0= -.37955687E+02  d E =-.112118E-02
 ZBRENT: can't locate minimum, use default step
 trial-energy change:   -0.001121  1 .order   -0.001121   -0.001144   -0.001097
 step:   0.3444(harm=  2.1349)  dis= 0.02202  next Energy=   -37.971812 (dE=-0.142E-01)
 bond charge predicted
       N       E                     dE             d eps       ncg     rms          rms(c)
DAV:   1    -0.379492916451E+02    0.94654E-02   -0.57313E+00  9904   0.125E+01    0.446E-01
DAV:   2    -0.379623631015E+02   -0.13071E-01   -0.15678E-01 11376   0.257E+00    0.200E-01
DAV:   3    -0.379620740875E+02    0.28901E-03   -0.48885E-03 12672   0.657E-01    0.125E-01
DAV:   4    -0.379618206904E+02    0.25340E-03   -0.10443E-03 15372   0.367E-01    0.436E-02
DAV:   5    -0.379618245972E+02   -0.39068E-05   -0.39106E-04 10800   0.183E-01    0.191E-02
DAV:   6    -0.379618267364E+02   -0.21392E-05   -0.50456E-05 11816   0.518E-02    0.110E-02
DAV:   7    -0.379618261518E+02    0.58464E-06   -0.62415E-06 12936   0.227E-02    0.709E-03
DAV:   8    -0.379618256936E+02    0.45818E-06   -0.22844E-06 13172   0.192E-02    0.212E-03
DAV:   9    -0.379618257121E+02   -0.18474E-07   -0.90675E-07 11944   0.888E-03    0.102E-03
DAV:  10    -0.379618257046E+02    0.74942E-08   -0.12236E-07 13244   0.310E-03    0.656E-04
DAV:  11    -0.379618256983E+02    0.62651E-08   -0.12444E-08  6252   0.991E-04
  33 F= -.37961826E+02 E0= -.37958849E+02  d E =-.418982E-02
 curvature:  -6.92 expect dE=-0.101E+00 dE for cont linesearch -0.234E-02
 ZBRENT: increasing intervall
 opt :   0.8611  next Energy=   -37.966707 (dE=-0.907E-02)
 bond charge predicted
       N       E                     dE             d eps       ncg     rms          rms(c)
DAV:   1    -0.379111464832E+02    0.50679E-01   -0.22833E+01  9900   0.251E+01    0.919E-01
DAV:   2    -0.379690745562E+02   -0.57928E-01   -0.69360E-01 11252   0.517E+00    0.425E-01
DAV:   3    -0.379676882090E+02    0.13863E-02   -0.22806E-02 13204   0.139E+00    0.265E-01
DAV:   4    -0.379666448092E+02    0.10434E-02   -0.57597E-03 13124   0.739E-01    0.946E-02
DAV:   5    -0.379666571941E+02   -0.12385E-04   -0.18732E-03 11296   0.457E-01    0.483E-02
DAV:   6    -0.379666638750E+02   -0.66809E-05   -0.27337E-04 12012   0.167E-01    0.245E-02
DAV:   7    -0.379666625467E+02    0.13283E-05   -0.44979E-05 13044   0.566E-02    0.184E-02
DAV:   8    -0.379666605436E+02    0.20032E-05   -0.95669E-06 11020   0.373E-02    0.791E-03
DAV:   9    -0.379666600537E+02    0.48984E-06   -0.56598E-06 13288   0.215E-02    0.222E-03
DAV:  10    -0.379666601070E+02   -0.53293E-07   -0.97311E-07 11420   0.845E-03    0.155E-03
DAV:  11    -0.379666600907E+02    0.16376E-07   -0.84943E-08 11328   0.345E-03    0.104E-03
DAV:  12    -0.379666600628E+02    0.27847E-07   -0.27170E-08  7800   0.332E-03    0.422E-04
DAV:  13    -0.379666600522E+02    0.10587E-07   -0.19505E-08  7536   0.136E-03    0.121E-04
DAV:  14    -0.379666600489E+02    0.33760E-08   -0.43946E-09  5708   0.508E-04
  34 F= -.37966660E+02 E0= -.37963824E+02  d E =-.902417E-02
 curvature: -14.45 expect dE=-0.281E+00 dE for cont linesearch -0.225E-02
 ZBRENT: increasing intervall
 opt :   1.8945  next Energy=   -37.970759 (dE=-0.131E-01)
 bond charge predicted
       N       E                     dE             d eps       ncg     rms          rms(c)
DAV:   1    -0.376834037625E+02    0.28326E+00   -0.90536E+01  9904   0.505E+01    0.200E+00
DAV:   2    -0.379822674601E+02   -0.29886E+00   -0.35446E+00 10476   0.113E+01    0.107E+00
DAV:   3    -0.379743793627E+02    0.78881E-02   -0.15550E-01 14012   0.410E+00    0.637E-01
DAV:   4    -0.379697379798E+02    0.46414E-02   -0.41350E-02 13292   0.215E+00    0.255E-01
DAV:   5    -0.379694017508E+02    0.33623E-03   -0.10362E-02 12772   0.129E+00    0.100E-01
DAV:   6    -0.379694652555E+02   -0.63505E-04   -0.18091E-03 11260   0.549E-01    0.501E-02
DAV:   7    -0.379694730163E+02   -0.77608E-05   -0.33113E-04 11976   0.176E-01    0.406E-02
DAV:   8    -0.379694626615E+02    0.10355E-04   -0.51229E-05 12108   0.111E-01    0.166E-02
DAV:   9    -0.379694613843E+02    0.12772E-05   -0.25011E-05 13256   0.787E-02    0.388E-03
DAV:  10    -0.379694617297E+02   -0.34547E-06   -0.45281E-06 11780   0.177E-02    0.262E-03
DAV:  11    -0.379694616673E+02    0.62462E-07   -0.39286E-07 12876   0.717E-03    0.126E-03
DAV:  12    -0.379694616265E+02    0.40793E-07   -0.84830E-08 11320   0.341E-03    0.480E-04
DAV:  13    -0.379694616024E+02    0.24086E-07   -0.26874E-08  7904   0.193E-03    0.208E-04
DAV:  14    -0.379694616055E+02   -0.30668E-08   -0.62587E-09  5900   0.103E-03
  35 F= -.37969462E+02 E0= -.37966717E+02  d E =-.118257E-01
 curvature: -26.33 expect dE=-0.118E+01 dE for cont linesearch -0.545E-03
 trial: gam= 2.23764 g(F)=  0.381E-01 g(S)=  0.652E-02 ort =-0.275E-02 (trialstep = 0.879E-01)
 search vector abs. value=  0.186E+01
 bond charge predicted
       N       E                     dE             d eps       ncg     rms          rms(c)
DAV:   1    -0.379657292967E+02    0.37323E-02   -0.33922E+00  9928   0.986E+00    0.459E-01
DAV:   2    -0.379730163649E+02   -0.72871E-02   -0.10850E-01 11120   0.260E+00    0.184E-01
DAV:   3    -0.379728527789E+02    0.16359E-03   -0.51266E-03 12360   0.774E-01    0.108E-01
DAV:   4    -0.379726514661E+02    0.20131E-03   -0.88629E-04 13668   0.415E-01    0.403E-02
DAV:   5    -0.379726510892E+02    0.37688E-06   -0.35124E-04 11304   0.167E-01    0.170E-02
DAV:   6    -0.379726514234E+02   -0.33419E-06   -0.50465E-05 12120   0.544E-02    0.952E-03
DAV:   7    -0.379726508060E+02    0.61740E-06   -0.46782E-06 12732   0.247E-02    0.621E-03
DAV:   8    -0.379726504389E+02    0.36708E-06   -0.20173E-06 13328   0.225E-02    0.204E-03
DAV:   9    -0.379726504166E+02    0.22365E-07   -0.67942E-07 11556   0.955E-03    0.815E-04
DAV:  10    -0.379726504053E+02    0.11244E-07   -0.14407E-07 13296   0.328E-03    0.453E-04
DAV:  11    -0.379726504010E+02    0.43160E-08   -0.11822E-08  6420   0.126E-03
  36 F= -.37972650E+02 E0= -.37969903E+02  d E =-.318880E-02
 ZBRENT: can't locate minimum, use default step
 trial-energy change:   -0.003189  1 .order   -0.003194   -0.003383   -0.003005
 step:   0.3515(harm=  0.7874)  dis= 0.05198  next Energy=   -37.984617 (dE=-0.152E-01)
 bond charge predicted
       N       E                     dE             d eps       ncg     rms          rms(c)
DAV:   1    -0.379085413397E+02    0.64109E-01   -0.30344E+01  9932   0.294E+01    0.142E+00
DAV:   2    -0.379835766456E+02   -0.75035E-01   -0.10999E+00 11192   0.763E+00    0.588E-01
DAV:   3    -0.379812984923E+02    0.22782E-02   -0.51303E-02 12420   0.227E+00    0.344E-01
DAV:   4    -0.379795132418E+02    0.17853E-02   -0.12100E-02 15132   0.125E+00    0.137E-01
DAV:   5    -0.379794610449E+02    0.52197E-04   -0.39177E-03 12556   0.699E-01    0.621E-02
DAV:   6    -0.379794716873E+02   -0.10642E-04   -0.63380E-04 11776   0.227E-01    0.287E-02
DAV:   7    -0.379794673772E+02    0.43101E-05   -0.74121E-05 13456   0.690E-02    0.201E-02
DAV:   8    -0.379794642247E+02    0.31525E-05   -0.15914E-05 11192   0.420E-02    0.708E-03
DAV:   9    -0.379794641277E+02    0.97036E-07   -0.65787E-06 12376   0.272E-02    0.283E-03
DAV:  10    -0.379794641512E+02   -0.23480E-07   -0.87522E-07 11776   0.101E-02    0.203E-03
DAV:  11    -0.379794641110E+02    0.40116E-07   -0.12407E-07 12912   0.617E-03    0.124E-03
DAV:  12    -0.379794640591E+02    0.51956E-07   -0.45247E-08  9700   0.285E-03    0.369E-04
DAV:  13    -0.379794640386E+02    0.20467E-07   -0.12325E-08  5992   0.114E-03    0.160E-04
DAV:  14    -0.379794640384E+02    0.23374E-09   -0.57874E-09  5748   0.934E-04
  37 F= -.37979464E+02 E0= -.37976641E+02  d E =-.100024E-01
 curvature: -11.62 expect dE=-0.438E+00 dE for cont linesearch -0.165E-02
 ZBRENT: increasing intervall
 opt :   0.8787  next Energy=   -37.978541 (dE=-0.908E-02)
 bond charge predicted
       N       E                     dE             d eps       ncg     rms          rms(c)
DAV:   1    -0.376002146384E+02    0.37925E+00   -0.12023E+02  9952   0.588E+01    0.297E+00
DAV:   2    -0.379948787546E+02   -0.39466E+00   -0.54863E+00 10544   0.157E+01    0.141E+00
DAV:   3    -0.379799676705E+02    0.14911E-01   -0.29251E-01 13716   0.522E+00    0.797E-01
DAV:   4    -0.379722971573E+02    0.76705E-02   -0.77655E-02 13076   0.285E+00    0.344E-01
DAV:   5    -0.379716032333E+02    0.69392E-03   -0.22203E-02 13040   0.183E+00    0.163E-01
DAV:   6    -0.379716109483E+02   -0.77151E-05   -0.31311E-03 11684   0.822E-01    0.682E-02
DAV:   7    -0.379716130070E+02   -0.20587E-05   -0.59849E-04 12032   0.206E-01    0.513E-02
DAV:   8    -0.379716010036E+02    0.12003E-04   -0.77917E-05 11336   0.103E-01    0.234E-02
DAV:   9    -0.379715993868E+02    0.16169E-05   -0.34906E-05 13068   0.694E-02    0.590E-03
DAV:  10    -0.379715996338E+02   -0.24705E-06   -0.54526E-06 10752   0.378E-02    0.414E-03
DAV:  11    -0.379715996288E+02    0.50404E-08   -0.11208E-06 13308   0.874E-03    0.228E-03
DAV:  12    -0.379715994948E+02    0.13396E-06   -0.18609E-07 13444   0.631E-03    0.693E-04
DAV:  13    -0.379715994486E+02    0.46213E-07   -0.75459E-08 11760   0.229E-03    0.420E-04
DAV:  14    -0.379715994506E+02   -0.19845E-08   -0.71730E-09  5980   0.816E-04
  38 F= -.37971599E+02 E0= -.37968303E+02  d E =-.213785E-02
 curvature:   6.51 expect dE= 0.406E+00 dE for cont linesearch  0.118E-01
 ZBRENT: bracketing found
 ZBRENT: interpolating
 opt :   0.4666  next Energy=   -37.980398 (dE=-0.109E-01)
 bond charge predicted
       N       E                     dE             d eps       ncg     rms          rms(c)
DAV:   1    -0.377435366925E+02    0.22806E+00   -0.74650E+01 10200   0.491E+01    0.220E+00
DAV:   2    -0.379829449416E+02   -0.23941E+00   -0.30807E+00 10548   0.148E+01    0.956E-01
DAV:   3    -0.379852599933E+02   -0.23151E-02   -0.17745E-01 13528   0.434E+00    0.520E-01
DAV:   4    -0.379815452942E+02    0.37147E-02   -0.25340E-02 12256   0.167E+00    0.248E-01
DAV:   5    -0.379808023117E+02    0.74298E-03   -0.54053E-03 12392   0.579E-01    0.987E-02
DAV:   6    -0.379807259323E+02    0.76379E-04   -0.84722E-04 11944   0.274E-01    0.378E-02
DAV:   7    -0.379807247198E+02    0.12125E-05   -0.17692E-04 10968   0.168E-01    0.253E-02
DAV:   8    -0.379807206757E+02    0.40441E-05   -0.32769E-05 13796   0.104E-01    0.941E-03
DAV:   9    -0.379807217078E+02   -0.10321E-05   -0.12071E-05 12796   0.396E-02    0.316E-03
DAV:  10    -0.379807219706E+02   -0.26285E-06   -0.25264E-06 12736   0.169E-02    0.199E-03
DAV:  11    -0.379807220507E+02   -0.80047E-07   -0.28801E-07 10948   0.569E-03    0.118E-03
DAV:  12    -0.379807221018E+02   -0.51083E-07   -0.96978E-08 13152   0.322E-03    0.392E-04
DAV:  13    -0.379807221185E+02   -0.16696E-07   -0.20049E-08  7648   0.151E-03    0.219E-04
DAV:  14    -0.379807221300E+02   -0.11536E-07   -0.31331E-09  5896   0.936E-04    0.110E-04
DAV:  15    -0.379807221311E+02   -0.11069E-08   -0.17646E-09  5752   0.699E-04
  39 F= -.37980722E+02 E0= -.37977835E+02  d E =-.112605E-01
 curvature:  -0.51 expect dE=-0.202E-01 dE for cont linesearch -0.941E-05
 trial: gam= 0.12661 g(F)=  0.361E-01 g(S)=  0.324E-02 ort = 0.583E-02 (trialstep = 0.164E+00)
 search vector abs. value=  0.706E-01
 bond charge predicted
       N       E                     dE             d eps       ncg     rms          rms(c)
DAV:   1    -0.379863948351E+02   -0.56727E-02   -0.40822E-01 10096   0.384E+00    0.258E-01
DAV:   2    -0.379870029564E+02   -0.60812E-03   -0.19269E-02 11036   0.139E+00    0.111E-01
DAV:   3    -0.379869377563E+02    0.65200E-04   -0.14297E-03 12852   0.407E-01    0.590E-02
DAV:   4    -0.379868697051E+02    0.68051E-04   -0.21738E-04 14384   0.232E-01    0.187E-02
DAV:   5    -0.379868702983E+02   -0.59315E-06   -0.80190E-05 10908   0.796E-02    0.637E-03
DAV:   6    -0.379868703481E+02   -0.49877E-07   -0.83482E-06 12544   0.273E-02    0.368E-03
DAV:   7    -0.379868701999E+02    0.14828E-06   -0.84269E-07 12420   0.145E-02    0.228E-03
DAV:   8    -0.379868701388E+02    0.61092E-07   -0.38614E-07 13160   0.772E-03    0.775E-04
DAV:   9    -0.379868701329E+02    0.58958E-08   -0.10588E-07 11204   0.397E-03    0.399E-04
DAV:  10    -0.379868701220E+02    0.10883E-07   -0.19789E-08  6696   0.210E-03    0.204E-04
DAV:  11    -0.379868701166E+02    0.54238E-08   -0.64016E-09  5884   0.907E-04
  40 F= -.37986870E+02 E0= -.37984044E+02  d E =-.614799E-02
 ZBRENT: can't locate minimum, use default step
 trial-energy change:   -0.006148  1 .order   -0.006148   -0.006559   -0.005737
 step:   0.6545(harm=  1.3066)  dis= 0.01532  next Energy=   -38.006911 (dE=-0.262E-01)
 bond charge predicted
       N       E                     dE             d eps       ncg     rms          rms(c)
DAV:   1    -0.379959714657E+02   -0.91013E-02   -0.36648E+00 10092   0.114E+01    0.776E-01
DAV:   2    -0.380015156802E+02   -0.55442E-02   -0.17531E-01 11076   0.415E+00    0.334E-01
DAV:   3    -0.380009145071E+02    0.60117E-03   -0.12929E-02 12840   0.120E+00    0.178E-01
DAV:   4    -0.380002986058E+02    0.61590E-03   -0.20030E-03 14664   0.699E-01    0.555E-02
DAV:   5    -0.380003035338E+02   -0.49280E-05   -0.73399E-04 10956   0.249E-01    0.197E-02
DAV:   6    -0.380003036051E+02   -0.71260E-07   -0.76126E-05 12388   0.790E-02    0.111E-02
DAV:   7    -0.380003025005E+02    0.11046E-05   -0.76966E-06 12996   0.411E-02    0.684E-03
DAV:   8    -0.380003021134E+02    0.38711E-06   -0.31735E-06 12500   0.241E-02    0.230E-03
DAV:   9    -0.380003021083E+02    0.50477E-08   -0.95648E-07 11500   0.114E-02    0.120E-03
DAV:  10    -0.380003020870E+02    0.21330E-07   -0.19471E-07 13304   0.606E-03    0.635E-04
DAV:  11    -0.380003020706E+02    0.16445E-07   -0.35912E-08  8496   0.226E-03    0.317E-04
DAV:  12    -0.380003020567E+02    0.13859E-07   -0.11579E-08  6056   0.106E-03    0.108E-04
DAV:  13    -0.380003020542E+02    0.25188E-08   -0.33994E-09  5816   0.842E-04
  41 F= -.38000302E+02 E0= -.37997635E+02  d E =-.195799E-01
 curvature:  -0.78 expect dE=-0.125E-01 dE for cont linesearch -0.423E-02
 ZBRENT: increasing intervall
 opt :   1.6362  next Energy=   -38.004380 (dE=-0.237E-01)
 bond charge predicted
       N       E                     dE             d eps       ncg     rms          rms(c)
DAV:   1    -0.379853185791E+02    0.14983E-01   -0.14617E+01 10112   0.227E+01    0.156E+00
DAV:   2    -0.380086136245E+02   -0.23295E-01   -0.71837E-01 11128   0.827E+00    0.673E-01
DAV:   3    -0.380061809597E+02    0.24327E-02   -0.52602E-02 13028   0.236E+00    0.363E-01
DAV:   4    -0.380036447417E+02    0.25362E-02   -0.79722E-03 14732   0.139E+00    0.109E-01
DAV:   5    -0.380036768731E+02   -0.32131E-04   -0.30581E-03 11096   0.532E-01    0.411E-02
DAV:   6    -0.380036764596E+02    0.41355E-06   -0.31342E-04 12236   0.156E-01    0.225E-02
DAV:   7    -0.380036722756E+02    0.41840E-05   -0.32666E-05 12848   0.735E-02    0.135E-02
DAV:   8    -0.380036709097E+02    0.13659E-05   -0.11947E-05 12316   0.525E-02    0.446E-03
DAV:   9    -0.380036710025E+02   -0.92781E-07   -0.36124E-06 11728   0.238E-02    0.236E-03
DAV:  10    -0.380036709798E+02    0.22706E-07   -0.74392E-07 13876   0.105E-02    0.128E-03
DAV:  11    -0.380036709463E+02    0.33438E-07   -0.14068E-07 11484   0.490E-03    0.658E-04
DAV:  12    -0.380036709191E+02    0.27180E-07   -0.42598E-08 10608   0.236E-03    0.230E-04
DAV:  13    -0.380036709137E+02    0.54702E-08   -0.97261E-09  6076   0.127E-03
  42 F= -.38003671E+02 E0= -.38001224E+02  d E =-.229488E-01
 curvature:  -0.75 expect dE=-0.348E-01 dE for cont linesearch -0.183E-02
 ZBRENT: bracketing found
 ZBRENT: interpolating
 opt :   1.2424  next Energy=   -38.006258 (dE=-0.255E-01)
 bond charge predicted
       N       E                     dE             d eps       ncg     rms          rms(c)
DAV:   1    -0.380028281006E+02    0.84282E-03   -0.23773E+00 10096   0.946E+00    0.617E-01
DAV:   2    -0.380069359091E+02   -0.41078E-02   -0.11594E-01 11100   0.349E+00    0.275E-01
DAV:   3    -0.380065960435E+02    0.33987E-03   -0.86040E-03 13736   0.974E-01    0.143E-01
DAV:   4    -0.380061775634E+02    0.41848E-03   -0.11457E-03 14588   0.525E-01    0.457E-02
DAV:   5    -0.380061743012E+02    0.32622E-05   -0.43379E-04 10996   0.177E-01    0.142E-02
DAV:   6    -0.380061743560E+02   -0.54764E-07   -0.41146E-05 12336   0.629E-02    0.860E-03
DAV:   7    -0.380061737908E+02    0.56521E-06   -0.39389E-06 13036   0.343E-02    0.507E-03
DAV:   8    -0.380061737045E+02    0.86221E-07   -0.19079E-06 13044   0.178E-02    0.129E-03
DAV:   9    -0.380061737548E+02   -0.50295E-07   -0.50457E-07 10744   0.901E-03    0.854E-04
DAV:  10    -0.380061737833E+02   -0.28520E-07   -0.82232E-08 11932   0.442E-03    0.422E-04
DAV:  11    -0.380061737994E+02   -0.16054E-07   -0.18025E-08  6668   0.173E-03    0.172E-04
DAV:  12    -0.380061738086E+02   -0.91595E-08   -0.67130E-09  5988   0.871E-04
  43 F= -.38006174E+02 E0= -.38003652E+02  d E =-.254517E-01
 curvature:  -1.06 expect dE=-0.258E-01 dE for cont linesearch -0.163E-05
 trial: gam= 0.61479 g(F)=  0.219E-01 g(S)=  0.247E-02 ort = 0.330E-03 (trialstep = 0.379E+00)
 search vector abs. value=  0.514E-01
 bond charge predicted
       N       E                     dE             d eps       ncg     rms          rms(c)
DAV:   1    -0.380131867046E+02   -0.70129E-02   -0.14787E+00 10072   0.703E+00    0.460E-01
DAV:   2    -0.380153693920E+02   -0.21827E-02   -0.58002E-02 11560   0.230E+00    0.229E-01
DAV:   3    -0.380148489345E+02    0.52046E-03   -0.39904E-03 12796   0.724E-01    0.123E-01
DAV:   4    -0.380145745734E+02    0.27436E-03   -0.80349E-04 13612   0.390E-01    0.246E-02
DAV:   5    -0.380145883224E+02   -0.13749E-04   -0.27366E-04 10736   0.144E-01    0.121E-02
DAV:   6    -0.380145886366E+02   -0.31422E-06   -0.19107E-05 12468   0.440E-02    0.757E-03
DAV:   7    -0.380145884826E+02    0.15397E-06   -0.41463E-06 12964   0.294E-02    0.419E-03
DAV:   8    -0.380145883662E+02    0.11644E-06   -0.11926E-06 13592   0.190E-02    0.151E-03
DAV:   9    -0.380145883658E+02    0.44292E-09   -0.48487E-07 13164   0.516E-03    0.801E-04
DAV:  10    -0.380145883508E+02    0.14930E-07   -0.65988E-08 11032   0.229E-03    0.446E-04
DAV:  11    -0.380145883457E+02    0.51878E-08   -0.20337E-08  7964   0.108E-03
  44 F= -.38014588E+02 E0= -.38012051E+02  d E =-.841454E-02
 ZBRENT: can't locate minimum, use default step
 trial-energy change:   -0.008415  1 .order   -0.008417   -0.009312   -0.007522
 step:   1.5175(harm=  1.9729)  dis= 0.03580  next Energy=   -38.030388 (dE=-0.242E-01)
 bond charge predicted
       N       E                     dE             d eps       ncg     rms          rms(c)
DAV:   1    -0.380157291056E+02   -0.11408E-02   -0.13290E+01 10068   0.209E+01    0.138E+00
DAV:   2    -0.380357552689E+02   -0.20026E-01   -0.53011E-01 11708   0.678E+00    0.694E-01
DAV:   3    -0.380309707790E+02    0.47845E-02   -0.37413E-02 12656   0.219E+00    0.371E-01
DAV:   4    -0.380284918331E+02    0.24789E-02   -0.75265E-03 14548   0.120E+00    0.754E-02
DAV:   5    -0.380286046110E+02   -0.11278E-03   -0.24630E-03 11012   0.444E-01    0.385E-02
DAV:   6    -0.380286088857E+02   -0.42748E-05   -0.20147E-04 11980   0.135E-01    0.232E-02
DAV:   7    -0.380286075654E+02    0.13203E-05   -0.38443E-05 13032   0.735E-02    0.132E-02
DAV:   8    -0.380286065070E+02    0.10584E-05   -0.11704E-05 13348   0.538E-02    0.453E-03
DAV:   9    -0.380286066968E+02   -0.18979E-06   -0.42299E-06 13196   0.175E-02    0.250E-03
DAV:  10    -0.380286066299E+02    0.66924E-07   -0.55915E-07 12224   0.861E-03    0.128E-03
DAV:  11    -0.380286066161E+02    0.13802E-07   -0.18636E-07 13416   0.479E-03    0.596E-04
DAV:  12    -0.380286065985E+02    0.17595E-07   -0.33672E-08  9412   0.264E-03    0.215E-04
DAV:  13    -0.380286065919E+02    0.65852E-08   -0.10014E-08  6204   0.724E-04
  45 F= -.38028607E+02 E0= -.38025993E+02  d E =-.224328E-01
 curvature:  -1.90 expect dE=-0.513E-01 dE for cont linesearch -0.757E-03
 trial: gam= 0.85359 g(F)=  0.177E-01 g(S)=  0.933E-02 ort = 0.453E-02 (trialstep = 0.432E+00)
 search vector abs. value=  0.722E-01
 bond charge predicted
       N       E                     dE             d eps       ncg     rms          rms(c)
DAV:   1    -0.380410850338E+02   -0.12478E-01   -0.25524E+00 10272   0.102E+01    0.819E-01
DAV:   2    -0.380413968242E+02   -0.31179E-03   -0.13183E-01 11808   0.441E+00    0.438E-01
DAV:   3    -0.380395271589E+02    0.18697E-02   -0.11305E-02 13528   0.127E+00    0.219E-01
DAV:   4    -0.380385906504E+02    0.93651E-03   -0.21212E-03 12372   0.720E-01    0.494E-02
DAV:   5    -0.380386261077E+02   -0.35457E-04   -0.76601E-04 10720   0.309E-01    0.209E-02
DAV:   6    -0.380386307253E+02   -0.46177E-05   -0.95848E-05 12452   0.108E-01    0.155E-02
DAV:   7    -0.380386296354E+02    0.10899E-05   -0.12722E-05 11900   0.806E-02    0.785E-03
DAV:   8    -0.380386301733E+02   -0.53785E-06   -0.66847E-06 13548   0.209E-02    0.218E-03
DAV:   9    -0.380386300862E+02    0.87065E-07   -0.90635E-07 11928   0.137E-02    0.131E-03
DAV:  10    -0.380386301384E+02   -0.52163E-07   -0.23622E-07 13408   0.404E-03    0.687E-04
DAV:  11    -0.380386301715E+02   -0.33161E-07   -0.59933E-08 10544   0.306E-03    0.252E-04
DAV:  12    -0.380386301795E+02   -0.80090E-08   -0.71451E-09  5916   0.927E-04
  46 F= -.38038630E+02 E0= -.38036005E+02  d E =-.100236E-01
 trial-energy change:   -0.010024  1 .order   -0.010029   -0.013355   -0.006702
 step:   0.8675(harm=  0.8675)  dis= 0.02335  next Energy=   -38.042012 (dE=-0.134E-01)
 bond charge predicted
       N       E                     dE             d eps       ncg     rms          rms(c)
DAV:   1    -0.380443918620E+02   -0.57617E-02   -0.25890E+00 10284   0.103E+01    0.823E-01
DAV:   2    -0.380448383402E+02   -0.44648E-03   -0.13386E-01 11824   0.443E+00    0.440E-01
DAV:   3    -0.380429562295E+02    0.18821E-02   -0.11494E-02 13592   0.128E+00    0.220E-01
DAV:   4    -0.380420082813E+02    0.94795E-03   -0.21440E-03 12204   0.727E-01    0.503E-02
DAV:   5    -0.380420436324E+02   -0.35351E-04   -0.78984E-04 10716   0.312E-01    0.210E-02
DAV:   6    -0.380420485695E+02   -0.49372E-05   -0.10005E-04 12460   0.110E-01    0.156E-02
DAV:   7    -0.380420474702E+02    0.10993E-05   -0.12814E-05 11948   0.806E-02    0.819E-03
DAV:   8    -0.380420480017E+02   -0.53147E-06   -0.69885E-06 13632   0.212E-02    0.226E-03
DAV:   9    -0.380420479122E+02    0.89505E-07   -0.98879E-07 11888   0.141E-02    0.132E-03
DAV:  10    -0.380420479633E+02   -0.51133E-07   -0.24449E-07 13404   0.409E-03    0.739E-04
DAV:  11    -0.380420479973E+02   -0.33952E-07   -0.64608E-08 10848   0.301E-03    0.264E-04
DAV:  12    -0.380420480069E+02   -0.95743E-08   -0.82541E-09  5980   0.906E-04
  47 F= -.38042048E+02 E0= -.38039407E+02  d E =-.134414E-01
 curvature:  -1.01 expect dE=-0.199E-01 dE for cont linesearch -0.524E-06
 trial: gam= 0.87245 g(F)=  0.172E-01 g(S)=  0.245E-02 ort = 0.193E-03 (trialstep = 0.500E+00)
 search vector abs. value=  0.750E-01
 bond charge predicted
       N       E                     dE             d eps       ncg     rms          rms(c)
DAV:   1    -0.380500341128E+02   -0.79861E-02   -0.36654E+00 10220   0.107E+01    0.654E-01
DAV:   2    -0.380524261320E+02   -0.23920E-02   -0.91665E-02 12308   0.298E+00    0.411E-01
DAV:   3    -0.380501133823E+02    0.23127E-02   -0.74650E-03 12892   0.123E+00    0.177E-01
DAV:   4    -0.380495895681E+02    0.52381E-03   -0.20858E-03 12780   0.784E-01    0.329E-02
DAV:   5    -0.380496447275E+02   -0.55159E-04   -0.72709E-04 10732   0.312E-01    0.243E-02
DAV:   6    -0.380496466675E+02   -0.19400E-05   -0.81886E-05 12392   0.111E-01    0.141E-02
DAV:   7    -0.380496460612E+02    0.60639E-06   -0.13256E-05 13268   0.737E-02    0.822E-03
DAV:   8    -0.380496464742E+02   -0.41302E-06   -0.67547E-06 12924   0.249E-02    0.280E-03
DAV:   9    -0.380496464501E+02    0.24118E-07   -0.92010E-07 13700   0.108E-02    0.154E-03
DAV:  10    -0.380496464538E+02   -0.36912E-08   -0.25551E-07 13608   0.628E-03    0.939E-04
DAV:  11    -0.380496464612E+02   -0.74147E-08   -0.13373E-07 11668   0.293E-03    0.277E-04
DAV:  12    -0.380496464616E+02   -0.43065E-09   -0.13185E-08  6200   0.116E-03
  48 F= -.38049646E+02 E0= -.38046802E+02  d E =-.759845E-02
 trial-energy change:   -0.007598  1 .order   -0.007573   -0.009915   -0.005232
 step:   1.0244(harm=  1.0590)  dis= 0.02625  next Energy=   -38.052416 (dE=-0.104E-01)
 bond charge predicted
       N       E                     dE             d eps       ncg     rms          rms(c)
DAV:   1    -0.380528559191E+02   -0.32095E-02   -0.40275E+00 10224   0.112E+01    0.684E-01
DAV:   2    -0.380555384608E+02   -0.26825E-02   -0.10092E-01 12208   0.310E+00    0.430E-01
DAV:   3    -0.380530030267E+02    0.25354E-02   -0.83169E-03 12900   0.129E+00    0.185E-01
DAV:   4    -0.380524261130E+02    0.57691E-03   -0.23071E-03 12604   0.815E-01    0.346E-02
DAV:   5    -0.380524873732E+02   -0.61260E-04   -0.80477E-04 10728   0.325E-01    0.254E-02
DAV:   6    -0.380524893242E+02   -0.19510E-05   -0.87848E-05 12364   0.115E-01    0.149E-02
DAV:   7    -0.380524886405E+02    0.68368E-06   -0.14486E-05 13528   0.778E-02    0.862E-03
DAV:   8    -0.380524890806E+02   -0.44010E-06   -0.73185E-06 13004   0.264E-02    0.293E-03
DAV:   9    -0.380524890578E+02    0.22832E-07   -0.10163E-06 13736   0.112E-02    0.162E-03
DAV:  10    -0.380524890609E+02   -0.30618E-08   -0.27902E-07 13836   0.660E-03    0.990E-04
DAV:  11    -0.380524890693E+02   -0.84328E-08   -0.14889E-07 11648   0.312E-03    0.292E-04
DAV:  12    -0.380524890703E+02   -0.10195E-08   -0.14691E-08  6272   0.119E-03
  49 F= -.38052489E+02 E0= -.38049390E+02  d E =-.104411E-01
 curvature:  -2.00 expect dE=-0.191E-01 dE for cont linesearch -0.973E-06
 trial: gam= 0.22631 g(F)=  0.606E-02 g(S)=  0.349E-02 ort = 0.191E-03 (trialstep = 0.605E+00)
 search vector abs. value=  0.135E-01
 bond charge predicted
       N       E                     dE             d eps       ncg     rms          rms(c)
DAV:   1    -0.380648833356E+02   -0.12394E-01   -0.93518E-01 12172   0.775E+00    0.807E-01
DAV:   2    -0.380583755675E+02    0.65078E-02   -0.88262E-02 11996   0.403E+00    0.315E-01
DAV:   3    -0.380573401135E+02    0.10355E-02   -0.70709E-03 13944   0.114E+00    0.157E-01
DAV:   4    -0.380568576641E+02    0.48245E-03   -0.11297E-03 13564   0.608E-01    0.480E-02
DAV:   5    -0.380568245250E+02    0.33139E-04   -0.34081E-04 11184   0.265E-01    0.133E-02
DAV:   6    -0.380568273077E+02   -0.27827E-05   -0.80716E-05 11884   0.778E-02    0.732E-03
DAV:   7    -0.380568272016E+02    0.10613E-06   -0.45388E-06 11800   0.276E-02    0.478E-03
DAV:   8    -0.380568270263E+02    0.17531E-06   -0.13708E-06 14748   0.139E-02    0.211E-03
DAV:   9    -0.380568269525E+02    0.73767E-07   -0.42050E-07 11764   0.739E-03    0.811E-04
DAV:  10    -0.380568269182E+02    0.34320E-07   -0.10539E-07 11768   0.280E-03    0.609E-04
DAV:  11    -0.380568268936E+02    0.24627E-07   -0.12608E-08  6080   0.183E-03    0.240E-04
DAV:  12    -0.380568268783E+02    0.15237E-07   -0.65966E-09  5908   0.626E-04    0.913E-05
DAV:  13    -0.380568268736E+02    0.47503E-08   -0.15215E-09  5736   0.461E-04
  50 F= -.38056827E+02 E0= -.38053755E+02  d E =-.433780E-02
 trial-energy change:   -0.004338  1 .order   -0.004335   -0.005805   -0.002864
 step:   1.1944(harm=  1.1944)  dis= 0.01527  next Energy=   -38.058219 (dE=-0.573E-02)
 bond charge predicted
       N       E                     dE             d eps       ncg     rms          rms(c)
DAV:   1    -0.380658451481E+02   -0.90183E-02   -0.88764E-01 12180   0.757E+00    0.787E-01
DAV:   2    -0.380596640179E+02    0.61811E-02   -0.83872E-02 11996   0.393E+00    0.308E-01
DAV:   3    -0.380586775661E+02    0.98645E-03   -0.67223E-03 13888   0.111E+00    0.153E-01
DAV:   4    -0.380582178475E+02    0.45972E-03   -0.10752E-03 13556   0.592E-01    0.465E-02
DAV:   5    -0.380581870718E+02    0.30776E-04   -0.32298E-04 11184   0.259E-01    0.129E-02
DAV:   6    -0.380581898034E+02   -0.27315E-05   -0.76135E-05 11836   0.757E-02    0.714E-03
DAV:   7    -0.380581897130E+02    0.90370E-07   -0.44056E-06 11828   0.278E-02    0.466E-03
DAV:   8    -0.380581895437E+02    0.16932E-06   -0.13113E-06 14728   0.138E-02    0.207E-03
DAV:   9    -0.380581894678E+02    0.75917E-07   -0.40222E-07 11836   0.718E-03    0.772E-04
DAV:  10    -0.380581894343E+02    0.33494E-07   -0.10022E-07 11772   0.278E-03    0.590E-04
DAV:  11    -0.380581894111E+02    0.23198E-07   -0.12104E-08  6080   0.174E-03    0.235E-04
DAV:  12    -0.380581893960E+02    0.15057E-07   -0.61092E-09  5888   0.610E-04    0.915E-05
DAV:  13    -0.380581893909E+02    0.51418E-08   -0.13874E-09  5736   0.421E-04
  51 F= -.38058189E+02 E0= -.38055144E+02  d E =-.570032E-02
 curvature:  -0.84 expect dE=-0.421E-02 dE for cont linesearch -0.107E-05
 trial: gam= 0.53385 g(F)=  0.401E-02 g(S)=  0.101E-02 ort =-0.131E-03 (trialstep = 0.723E+00)
 search vector abs. value=  0.872E-02
 bond charge predicted
       N       E                     dE             d eps       ncg     rms          rms(c)
DAV:   1    -0.380588980911E+02   -0.70870E-03   -0.94659E-01 10080   0.536E+00    0.221E-01
DAV:   2    -0.380606279817E+02   -0.17299E-02   -0.22859E-02 11936   0.116E+00    0.136E-01
DAV:   3    -0.380603996556E+02    0.22833E-03   -0.11225E-03 12780   0.354E-01    0.787E-02
DAV:   4    -0.380603116889E+02    0.87967E-04   -0.35202E-04 11824   0.206E-01    0.241E-02
DAV:   5    -0.380603149412E+02   -0.32522E-05   -0.98057E-05 11808   0.107E-01    0.114E-02
DAV:   6    -0.380603153341E+02   -0.39291E-06   -0.13704E-05 11664   0.472E-02    0.725E-03
DAV:   7    -0.380603151380E+02    0.19611E-06   -0.24210E-06 12932   0.293E-02    0.394E-03
DAV:   8    -0.380603152517E+02   -0.11377E-06   -0.11350E-06 13300   0.145E-02    0.947E-04
DAV:   9    -0.380603152623E+02   -0.10576E-07   -0.25342E-07 11512   0.447E-03    0.670E-04
DAV:  10    -0.380603152681E+02   -0.57626E-08   -0.37884E-08  9112   0.353E-03
  52 F= -.38060315E+02 E0= -.38057273E+02  d E =-.212588E-02
 trial-energy change:   -0.002126  1 .order   -0.002137   -0.003575   -0.000700
 step:   0.9042(harm=  0.8989)  dis= 0.00820  next Energy=   -38.060403 (dE=-0.221E-02)
 bond charge predicted
       N       E                     dE             d eps       ncg     rms          rms(c)
DAV:   1    -0.380603144180E+02    0.84426E-06   -0.59493E-02 10112   0.134E+00    0.556E-02
DAV:   2    -0.380604225027E+02   -0.10808E-03   -0.14238E-03 12032   0.288E-01    0.338E-02
DAV:   3    -0.380604079048E+02    0.14598E-04   -0.67496E-05 12832   0.842E-02    0.194E-02
DAV:   4    -0.380604026182E+02    0.52866E-05   -0.21898E-05 11840   0.523E-02    0.593E-03
DAV:   5    -0.380604028708E+02   -0.25263E-06   -0.61236E-06 11788   0.281E-02    0.277E-03
DAV:   6    -0.380604029102E+02   -0.39305E-07   -0.92120E-07 11520   0.117E-02    0.182E-03
DAV:   7    -0.380604029139E+02   -0.37840E-08   -0.15368E-07 13012   0.716E-03    0.103E-03
DAV:   8    -0.380604029380E+02   -0.24037E-07   -0.74209E-08 11756   0.376E-03    0.245E-04
DAV:   9    -0.380604029391E+02   -0.10941E-08   -0.15265E-08  6272   0.117E-03
  53 F= -.38060403E+02 E0= -.38057360E+02  d E =-.221355E-02
 curvature:  -0.79 expect dE=-0.479E-02 dE for cont linesearch -0.268E-07
 trial: gam= 1.17544 g(F)=  0.562E-02 g(S)=  0.433E-03 ort =-0.172E-04 (trialstep = 0.367E+00)
 search vector abs. value=  0.181E-01
 bond charge predicted
       N       E                     dE             d eps       ncg     rms          rms(c)
DAV:   1    -0.380616513610E+02   -0.12484E-02   -0.51975E-01  9944   0.393E+00    0.145E-01
DAV:   2    -0.380624081015E+02   -0.75674E-03   -0.11099E-02 12072   0.838E-01    0.870E-02
DAV:   3    -0.380623570726E+02    0.51029E-04   -0.71149E-04 11568   0.267E-01    0.487E-02
DAV:   4    -0.380623167470E+02    0.40326E-04   -0.15881E-04 13628   0.151E-01    0.163E-02
DAV:   5    -0.380623172757E+02   -0.52870E-06   -0.44130E-05 10804   0.636E-02    0.591E-03
DAV:   6    -0.380623174872E+02   -0.21157E-06   -0.61311E-06 12140   0.265E-02    0.419E-03
DAV:   7    -0.380623174404E+02    0.46825E-07   -0.72743E-07 11888   0.132E-02    0.210E-03
DAV:   8    -0.380623174735E+02   -0.33063E-07   -0.32940E-07 14092   0.718E-03    0.687E-04
[...]
DAV:   4    -0.380849445613E+02    0.51467E-06   -0.17524E-06 12212   0.168E-02    0.109E-03
DAV:   5    -0.380849446052E+02   -0.43919E-07   -0.56623E-07 10588   0.758E-03    0.637E-04
DAV:   6    -0.380849446058E+02   -0.58526E-09   -0.53556E-08  9768   0.342E-03
 107 F= -.38084945E+02 E0= -.38077273E+02  d E =-.831263E-05
 trial-energy change:   -0.000008  1 .order   -0.000008   -0.000010   -0.000006
 step:   0.8697(harm=  0.8697)  dis= 0.00072  next Energy=   -38.084949 (dE=-0.129E-04)
 bond charge predicted
       N       E                     dE             d eps       ncg     rms          rms(c)
DAV:   1    -0.380849551004E+02   -0.10495E-04   -0.48775E-03 10188   0.409E-01    0.324E-02
DAV:   2    -0.380849543155E+02    0.78493E-06   -0.18654E-04 11440   0.143E-01    0.176E-02
DAV:   3    -0.380849504529E+02    0.38626E-05   -0.15995E-05 13124   0.494E-02    0.833E-03
DAV:   4    -0.380849493030E+02    0.11499E-05   -0.38134E-06 12208   0.252E-02    0.161E-03
DAV:   5    -0.380849493887E+02   -0.85706E-07   -0.12333E-06 10580   0.116E-02    0.952E-04
DAV:   6    -0.380849493914E+02   -0.26762E-08   -0.13085E-07 11880   0.530E-03    0.583E-04
DAV:   7    -0.380849493856E+02    0.57580E-08   -0.19125E-08  6880   0.294E-03
 108 F= -.38084949E+02 E0= -.38077295E+02  d E =-.130925E-04
 curvature:  -1.53 expect dE=-0.106E-04 dE for cont linesearch -0.256E-08
 trial: gam= 0.35251 g(F)=  0.474E-05 g(S)=  0.218E-05 ort = 0.417E-06 (trialstep = 0.455E+00)
 search vector abs. value=  0.201E-04
 bond charge predicted
       N       E                     dE             d eps       ncg     rms          rms(c)
DAV:   1    -0.380849531954E+02   -0.38040E-05   -0.74567E-04 10160   0.163E-01    0.121E-02
DAV:   2    -0.380849531611E+02    0.34258E-07   -0.26369E-05 11444   0.570E-02    0.675E-03
DAV:   3    -0.380849525535E+02    0.60766E-06   -0.24914E-06 13228   0.196E-02    0.323E-03
DAV:   4    -0.380849523299E+02    0.22363E-06   -0.52064E-07 12684   0.106E-02    0.634E-04
DAV:   5    -0.380849523290E+02    0.80718E-09   -0.17114E-07 10588   0.487E-03    0.322E-04
DAV:   6    -0.380849523315E+02   -0.24875E-08   -0.20271E-08  7424   0.192E-03
 109 F= -.38084952E+02 E0= -.38077302E+02  d E =-.294594E-05
 ZBRENT: can't locate minimum, use default step
 trial-energy change:   -0.000003  1 .order   -0.000003   -0.000003   -0.000003
 step:   1.8198(harm=  2.6214)  dis= 0.00051  next Energy=   -38.084959 (dE=-0.926E-05)
 bond charge predicted
       N       E                     dE             d eps       ncg     rms          rms(c)
DAV:   1    -0.380849651932E+02   -0.12864E-04   -0.67115E-03 10160   0.490E-01    0.365E-02
DAV:   2    -0.380849646706E+02    0.52263E-06   -0.23678E-04 11420   0.171E-01    0.202E-02
DAV:   3    -0.380849597930E+02    0.48776E-05   -0.22409E-05 13256   0.592E-02    0.967E-03
DAV:   4    -0.380849579939E+02    0.17991E-05   -0.46788E-06 12612   0.323E-02    0.190E-03
DAV:   5    -0.380849580570E+02   -0.63112E-07   -0.15410E-06 10608   0.148E-02    0.967E-04
DAV:   6    -0.380849580716E+02   -0.14599E-07   -0.19989E-07 11936   0.579E-03    0.658E-04
DAV:   7    -0.380849580784E+02   -0.68621E-08   -0.29013E-08  8160   0.306E-03
 110 F= -.38084958E+02 E0= -.38077317E+02  d E =-.869283E-05
 curvature:  -3.22 expect dE=-0.134E-04 dE for cont linesearch -0.874E-06
 ZBRENT: increasing intervall
 opt :   4.5496  next Energy=   -38.084955 (dE=-0.551E-05)
 bond charge predicted
       N       E                     dE             d eps       ncg     rms          rms(c)
DAV:   1    -0.380849816576E+02   -0.23586E-04   -0.26847E-02 10160   0.980E-01    0.729E-02
DAV:   2    -0.380849793856E+02    0.22721E-05   -0.94856E-04 11420   0.342E-01    0.404E-02
DAV:   3    -0.380849604981E+02    0.18888E-04   -0.89963E-05 13256   0.118E-01    0.193E-02
DAV:   4    -0.380849534880E+02    0.70100E-05   -0.18760E-05 12596   0.643E-02    0.380E-03
DAV:   5    -0.380849537973E+02   -0.30927E-06   -0.61601E-06 10604   0.294E-02    0.193E-03
DAV:   6    -0.380849538495E+02   -0.52185E-07   -0.79424E-07 12056   0.116E-02    0.131E-03
DAV:   7    -0.380849538616E+02   -0.12159E-07   -0.11887E-07 10496   0.612E-03    0.698E-04
DAV:   8    -0.380849538811E+02   -0.19438E-07   -0.45120E-08  9900   0.237E-03    0.185E-04
DAV:   9    -0.380849538826E+02   -0.14911E-08   -0.10869E-08  5900   0.115E-03
 111 F= -.38084954E+02 E0= -.38077332E+02  d E =-.449696E-05
 curvature:  11.71 expect dE= 0.261E-03 dE for cont linesearch  0.107E-04
 ZBRENT: bracketing found
 ZBRENT: interpolating
 opt :   2.7839  next Energy=   -38.084959 (dE=-0.982E-05)
 bond charge predicted
       N       E                     dE             d eps       ncg     rms          rms(c)
DAV:   1    -0.380849704552E+02   -0.16574E-04   -0.11228E-02 10164   0.633E-01    0.472E-02
DAV:   2    -0.380849691659E+02    0.12893E-05   -0.39509E-04 11420   0.220E-01    0.262E-02
DAV:   3    -0.380849618705E+02    0.72954E-05   -0.37325E-05 13268   0.762E-02    0.125E-02
DAV:   4    -0.380849591429E+02    0.27275E-05   -0.77777E-06 12652   0.416E-02    0.245E-03
DAV:   5    -0.380849593378E+02   -0.19482E-06   -0.25691E-06 10588   0.191E-02    0.125E-03
DAV:   6    -0.380849593531E+02   -0.15378E-07   -0.33365E-07 11976   0.746E-03    0.850E-04
DAV:   7    -0.380849593443E+02    0.88125E-08   -0.48644E-08  8600   0.395E-03
 112 F= -.38084959E+02 E0= -.38077325E+02  d E =-.995873E-05
 curvature:  -1.24 expect dE=-0.932E-05 dE for cont linesearch -0.895E-08
 trial: gam= 1.04323 g(F)=  0.669E-05 g(S)=  0.851E-06 ort = 0.382E-06 (trialstep = 0.613E+00)
 search vector abs. value=  0.302E-04
 bond charge predicted
       N       E                     dE             d eps       ncg     rms          rms(c)
DAV:   1    -0.380849595339E+02   -0.18079E-06   -0.22404E-03 10020   0.268E-01    0.148E-02
DAV:   2    -0.380849623198E+02   -0.27859E-05   -0.61227E-05 12152   0.648E-02    0.876E-03
DAV:   3    -0.380849610948E+02    0.12250E-05   -0.34216E-06 13168   0.290E-02    0.408E-03
DAV:   4    -0.380849608596E+02    0.23518E-06   -0.10978E-06 11716   0.187E-02    0.102E-03
DAV:   5    -0.380849608955E+02   -0.35876E-07   -0.34996E-07 10984   0.718E-03    0.574E-04
DAV:   6    -0.380849608979E+02   -0.23688E-08   -0.49418E-08  9172   0.278E-03
 113 F= -.38084961E+02 E0= -.38077332E+02  d E =-.155356E-05
 trial-energy change:   -0.000002  1 .order   -0.000003   -0.000005   -0.000002
 step:   0.9135(harm=  0.9135)  dis= 0.00033  next Energy=   -38.084963 (dE=-0.363E-05)
 bond charge predicted
       N       E                     dE             d eps       ncg     rms          rms(c)
DAV:   1    -0.380849610442E+02   -0.14872E-06   -0.54209E-04 10024   0.132E-01    0.734E-03
DAV:   2    -0.380849617238E+02   -0.67952E-06   -0.14932E-05 12176   0.325E-02    0.434E-03
DAV:   3    -0.380849614244E+02    0.29941E-06   -0.86245E-07 13200   0.157E-02    0.205E-03
DAV:   4    -0.380849613686E+02    0.55713E-07   -0.27709E-07 11764   0.978E-03    0.503E-04
DAV:   5    -0.380849613824E+02   -0.13784E-07   -0.92632E-08 10796   0.349E-03    0.294E-04
DAV:   6    -0.380849613828E+02   -0.40154E-09   -0.11286E-08  5800   0.144E-03
 114 F= -.38084961E+02 E0= -.38077335E+02  d E =-.203850E-05
 curvature:  -1.74 expect dE=-0.626E-05 dE for cont linesearch -0.425E-08
 trial: gam= 0.44668 g(F)=  0.210E-05 g(S)=  0.150E-05 ort = 0.272E-06 (trialstep = 0.673E+00)
 search vector abs. value=  0.987E-05
 bond charge predicted
       N       E                     dE             d eps       ncg     rms          rms(c)
DAV:   1    -0.380849653810E+02   -0.39985E-05   -0.93720E-04 10688   0.224E-01    0.202E-02
DAV:   2    -0.380849633987E+02    0.19823E-05   -0.77011E-05 11124   0.109E-01    0.849E-03
DAV:   3    -0.380849630189E+02    0.37977E-06   -0.56557E-06 13296   0.281E-02    0.417E-03
DAV:   4    -0.380849627802E+02    0.23870E-06   -0.83426E-07 12980   0.124E-02    0.145E-03
DAV:   5    -0.380849627913E+02   -0.11093E-07   -0.24363E-07 11440   0.432E-03    0.356E-04
DAV:   6    -0.380849627974E+02   -0.60913E-08   -0.40388E-08  9716   0.218E-03
 115 F= -.38084963E+02 E0= -.38077340E+02  d E =-.141457E-05
 trial-energy change:   -0.000001  1 .order   -0.000001   -0.000003   -0.000000
 step:   0.7129(harm=  0.7214)  dis= 0.00017  next Energy=   -38.084963 (dE=-0.142E-05)
 bond charge predicted
       N       E                     dE             d eps       ncg     rms          rms(c)
DAV:   1    -0.380849627987E+02   -0.73669E-08   -0.33578E-06 10760   0.133E-02    0.125E-03
DAV:   2    -0.380849627844E+02    0.14278E-07   -0.26934E-07 11220   0.662E-03    0.521E-04
DAV:   3    -0.380849627879E+02   -0.35166E-08   -0.18168E-08  7036   0.176E-03
 116 F= -.38084963E+02 E0= -.38077340E+02  d E =-.140509E-05
 curvature:  -0.93 expect dE=-0.194E-05 dE for cont linesearch -0.200E-08
 trial: gam= 0.66984 g(F)=  0.162E-05 g(S)=  0.477E-06 ort =-0.146E-06 (trialstep = 0.681E+00)
 search vector abs. value=  0.633E-05
 bond charge predicted
       N       E                     dE             d eps       ncg     rms          rms(c)
DAV:   1    -0.380849636497E+02   -0.86531E-06   -0.60955E-04 10140   0.150E-01    0.931E-03
DAV:   2    -0.380849640348E+02   -0.38512E-06   -0.21850E-05 11388   0.492E-02    0.467E-03
DAV:   3    -0.380849639422E+02    0.92611E-07   -0.15628E-06 12692   0.146E-02    0.237E-03
DAV:   4    -0.380849638720E+02    0.70236E-07   -0.28844E-07 12936   0.737E-03    0.618E-04
DAV:   5    -0.380849638915E+02   -0.19477E-07   -0.10513E-07 10692   0.282E-03    0.217E-04
DAV:   6    -0.380849638905E+02    0.91677E-09   -0.56335E-09  5988   0.672E-04
 117 F= -.38084964E+02 E0= -.38077344E+02  d E =-.110262E-05
 trial-energy change:   -0.000001  1 .order   -0.000001   -0.000001   -0.000001
 step:   1.0186(harm=  1.3773)  dis= 0.00020  next Energy=   -38.084964 (dE=-0.128E-05)
 bond charge predicted
       N       E                     dE             d eps       ncg     rms          rms(c)
DAV:   1    -0.380849640856E+02   -0.19417E-06   -0.15027E-04 10148   0.744E-02    0.463E-03
DAV:   2    -0.380849641772E+02   -0.91533E-07   -0.54520E-06 11400   0.245E-02    0.231E-03
DAV:   3    -0.380849641722E+02    0.49872E-08   -0.38676E-07 12756   0.731E-03    0.117E-03
DAV:   4    -0.380849641635E+02    0.86675E-08   -0.70469E-08 11804   0.367E-03
 118 F= -.38084964E+02 E0= -.38077346E+02  d E =-.137559E-05
 curvature:  -1.60 expect dE=-0.363E-05 dE for cont linesearch -0.255E-07
 trial: gam= 0.65885 g(F)=  0.678E-06 g(S)=  0.159E-05 ort = 0.317E-06 (trialstep = 0.748E+00)
 search vector abs. value=  0.543E-05
 bond charge predicted
       N       E                     dE             d eps       ncg     rms          rms(c)
DAV:   1    -0.380849695967E+02   -0.54245E-05   -0.59937E-04 12012   0.194E-01    0.192E-02
DAV:   2    -0.380849660485E+02    0.35482E-05   -0.50609E-05 11888   0.950E-02    0.780E-03
DAV:   3    -0.380849653276E+02    0.72092E-06   -0.39086E-06 13852   0.254E-02    0.385E-03
DAV:   4    -0.380849649262E+02    0.40146E-06   -0.57321E-07 13360   0.125E-02    0.109E-03
DAV:   5    -0.380849648771E+02    0.49047E-07   -0.18124E-07 11184   0.573E-03    0.292E-04
DAV:   6    -0.380849648722E+02    0.48763E-08   -0.39678E-08  8812   0.172E-03
 119 F= -.38084965E+02 E0= -.38077346E+02  d E =-.708728E-06
 trial-energy change:   -0.000001  1 .order   -0.000001   -0.000002   -0.000000
 step:   0.8343(harm=  0.7609)  dis= 0.00014  next Energy=   -38.084965 (dE=-0.710E-06)
 bond charge predicted
       N       E                     dE             d eps       ncg     rms          rms(c)
DAV:   1    -0.380849649678E+02   -0.90739E-07   -0.79369E-06 11832   0.223E-02    0.224E-03
DAV:   2    -0.380849649271E+02    0.40782E-07   -0.66679E-07 11824   0.111E-02    0.903E-04
DAV:   3    -0.380849649048E+02    0.22294E-07   -0.49338E-08  9500   0.301E-03    0.439E-04
DAV:   4    -0.380849648908E+02    0.13959E-07   -0.92484E-09  5568   0.150E-03    0.132E-04
DAV:   5    -0.380849648884E+02    0.24370E-08   -0.39973E-09  5256   0.946E-04
 120 F= -.38084965E+02 E0= -.38077346E+02  d E =-.724871E-06
 curvature:  27.44 expect dE= 0.505E-04 dE for cont linesearch  0.199E-07
 trial: gam= 0.91996 g(F)=  0.118E-05 g(S)=  0.658E-06 ort =-0.627E-07 (trialstep = 0.658E+00)
 search vector abs. value=  0.632E-05
 bond charge predicted
       N       E                     dE             d eps       ncg     rms          rms(c)
DAV:   1    -0.380849645582E+02    0.33265E-06   -0.58531E-04 10244   0.140E-01    0.585E-03
DAV:   2    -0.380849656359E+02   -0.10777E-05   -0.16701E-05 11508   0.340E-02    0.330E-03
DAV:   3    -0.380849655425E+02    0.93372E-07   -0.10974E-06 12740   0.112E-02    0.187E-03
DAV:   4    -0.380849654728E+02    0.69686E-07   -0.24382E-07 12896   0.592E-03    0.658E-04
DAV:   5    -0.380849654519E+02    0.20924E-07   -0.62365E-08 10768   0.276E-03    0.255E-04
DAV:   6    -0.380849654488E+02    0.30905E-08   -0.76313E-09  5844   0.963E-04
 121 F= -.38084965E+02 E0= -.38077345E+02  d E =-.560445E-06
 trial-energy change:   -0.000001  1 .order   -0.000001   -0.000001    0.000000
 step:   0.6186(harm=  0.6186)  dis= 0.00013  next Energy=   -38.084965 (dE=-0.551E-06)
 bond charge predicted
       N       E                     dE             d eps       ncg     rms          rms(c)
DAV:   1    -0.380849654419E+02    0.10026E-07   -0.20303E-06 10276   0.834E-03    0.340E-04
DAV:   2    -0.380849654440E+02   -0.21432E-08   -0.59740E-08 10580   0.234E-03
 122 F= -.38084965E+02 E0= -.38077345E+02  d E =-.555653E-06
 curvature:  -1.10 expect dE=-0.106E-05 dE for cont linesearch -0.356E-08
 trial: gam= 0.42238 g(F)=  0.645E-06 g(S)=  0.323E-06 ort = 0.143E-06 (trialstep = 0.650E+00)
 search vector abs. value=  0.222E-05
 bond charge predicted
       N       E                     dE             d eps       ncg     rms          rms(c)
DAV:   1    -0.380849661451E+02   -0.70321E-06   -0.20156E-04 10060   0.952E-02    0.771E-03
DAV:   2    -0.380849659552E+02    0.18987E-06   -0.11962E-05 11200   0.421E-02    0.354E-03
DAV:   3    -0.380849659412E+02    0.13979E-07   -0.85745E-07 13072   0.110E-02    0.171E-03
DAV:   4    -0.380849659247E+02    0.16517E-07   -0.13295E-07 12580   0.540E-03    0.509E-04
DAV:   5    -0.380849659408E+02   -0.16109E-07   -0.47338E-08  9988   0.217E-03    0.147E-04
DAV:   6    -0.380849659424E+02   -0.15598E-08   -0.47322E-09  5588   0.858E-04
 123 F= -.38084966E+02 E0= -.38077346E+02  d E =-.498369E-06
 trial-energy change:   -0.000000  1 .order   -0.000000   -0.000001   -0.000000
 step:   1.2687(harm=  1.2687)  dis= 0.00017  next Energy=   -38.084966 (dE=-0.653E-06)
 bond charge predicted
       N       E                     dE             d eps       ncg     rms          rms(c)
DAV:   1    -0.380849663091E+02   -0.36827E-06   -0.18310E-04 10060   0.906E-02    0.733E-03
DAV:   2    -0.380849661422E+02    0.16695E-06   -0.10839E-05 11224   0.401E-02    0.336E-03
DAV:   3    -0.380849661320E+02    0.10122E-07   -0.77678E-07 13072   0.105E-02    0.163E-03
DAV:   4    -0.380849661170E+02    0.15013E-07   -0.11959E-07 12376   0.516E-03    0.484E-04
DAV:   5    -0.380849661318E+02   -0.14789E-07   -0.42732E-08  9716   0.210E-03    0.140E-04
DAV:   6    -0.380849661334E+02   -0.15802E-08   -0.46094E-09  5604   0.856E-04
 124 F= -.38084966E+02 E0= -.38077346E+02  d E =-.689366E-06
 curvature:  -1.37 expect dE=-0.415E-06 dE for cont linesearch -0.295E-08
 trial: gam= 0.28722 g(F)=  0.232E-06 g(S)=  0.717E-07 ort = 0.692E-07 (trialstep = 0.774E+00)
 search vector abs. value=  0.527E-06
 bond charge predicted
       N       E                     dE             d eps       ncg     rms          rms(c)
DAV:   1    -0.380849662205E+02   -0.88715E-07   -0.64340E-05 10160   0.463E-02    0.232E-03
DAV:   2    -0.380849663327E+02   -0.11213E-06   -0.19426E-06 11740   0.123E-02    0.131E-03
DAV:   3    -0.380849663014E+02    0.31241E-07   -0.14558E-07 12276   0.399E-03    0.753E-04
DAV:   4    -0.380849662852E+02    0.16262E-07   -0.33883E-08  8792   0.220E-03    0.227E-04
DAV:   5    -0.380849662860E+02   -0.84037E-09   -0.10094E-08  5672   0.100E-03
 125 F= -.38084966E+02 E0= -.38077346E+02  d E =-.152605E-06
 trial-energy change:   -0.000000  1 .order   -0.000000   -0.000000   -0.000000
 step:   1.1357(harm=  1.1357)  dis= 0.00006  next Energy=   -38.084966 (dE=-0.184E-06)
 bond charge predicted
       N       E                     dE             d eps       ncg     rms          rms(c)
DAV:   1    -0.380849662894E+02   -0.42542E-08   -0.14088E-05 10180   0.217E-02    0.111E-03
DAV:   2    -0.380849663159E+02   -0.26474E-07   -0.43226E-07 11820   0.575E-03    0.616E-04
DAV:   3    -0.380849663063E+02    0.95774E-08   -0.31052E-08  9692   0.185E-03
 126 F= -.38084966E+02 E0= -.38077346E+02  d E =-.172916E-06
 curvature:  -0.92 expect dE=-0.490E-06 dE for cont linesearch -0.152E-08
 trial: gam= 1.70494 g(F)=  0.424E-06 g(S)=  0.106E-06 ort = 0.295E-07 (trialstep = 0.206E+00)
 search vector abs. value=  0.216E-05
 bond charge predicted
       N       E                     dE             d eps       ncg     rms          rms(c)
DAV:   1    -0.380849664074E+02   -0.91551E-07   -0.17969E-05 10076   0.239E-02    0.158E-03
DAV:   2    -0.380849664154E+02   -0.80158E-08   -0.44777E-07 11652   0.573E-03    0.923E-04
DAV:   3    -0.380849663900E+02    0.25440E-07   -0.38206E-08  9940   0.204E-03    0.375E-04
DAV:   4    -0.380849663893E+02    0.72032E-09   -0.11894E-08  5436   0.142E-03
 127 F= -.38084966E+02 E0= -.38077346E+02  d E =-.829837E-07
 trial-energy change:   -0.000000  1 .order   -0.000000   -0.000000   -0.000000
 step:   0.6879(harm=  0.6879)  dis= 0.00008  next Energy=   -38.084967 (dE=-0.200E-06)
 bond charge predicted
       N       E                     dE             d eps       ncg     rms          rms(c)
DAV:   1    -0.380849665387E+02   -0.14870E-06   -0.98200E-05 10076   0.561E-02    0.359E-03
DAV:   2    -0.380849665984E+02   -0.59734E-07   -0.25247E-06 11656   0.142E-02    0.209E-03
DAV:   3    -0.380849665009E+02    0.97495E-07   -0.21821E-07 13040   0.577E-03    0.916E-04
DAV:   4    -0.380849664880E+02    0.12928E-07   -0.65189E-08 10712   0.364E-03    0.183E-04
DAV:   5    -0.380849664866E+02    0.14306E-08   -0.17874E-08  5668   0.142E-03
 128 F= -.38084966E+02 E0= -.38077345E+02  d E =-.180285E-06
 curvature:  -1.28 expect dE=-0.295E-06 dE for cont linesearch -0.437E-08
 trial: gam= 0.15068 g(F)=  0.174E-06 g(S)=  0.566E-07 ort = 0.859E-07 (trialstep = 0.302E+00)
 search vector abs. value=  0.305E-06
 bond charge predicted
       N       E                     dE             d eps       ncg     rms          rms(c)
DAV:   1    -0.380849665300E+02   -0.41955E-07   -0.55722E-06 10360   0.160E-02    0.126E-03
DAV:   2    -0.380849665324E+02   -0.24647E-08   -0.36955E-07 11896   0.725E-03    0.619E-04
DAV:   3    -0.380849665375E+02   -0.50954E-08   -0.24885E-08  8352   0.192E-03
 129 F= -.38084967E+02 E0= -.38077345E+02  d E =-.509453E-07
 trial-energy change:   -0.000000  1 .order   -0.000000   -0.000000   -0.000000
 step:   0.6802(harm=  0.6802)  dis= 0.00003  next Energy=   -38.084967 (dE=-0.827E-07)
 bond charge predicted
       N       E                     dE             d eps       ncg     rms          rms(c)
DAV:   1    -0.380849665598E+02   -0.27372E-07   -0.86570E-06 10380   0.197E-02    0.161E-03
DAV:   2    -0.380849665600E+02   -0.16962E-09   -0.54969E-07 12252   0.891E-03    0.801E-04
DAV:   3    -0.380849665657E+02   -0.56880E-08   -0.38771E-08  9116   0.232E-03
 130 F= -.38084967E+02 E0= -.38077345E+02  d E =-.790797E-07
 curvature:  -0.43 expect dE=-0.101E-06 dE for cont linesearch -0.380E-09
 trial: gam= 0.98664 g(F)=  0.159E-06 g(S)=  0.769E-07 ort = 0.165E-07 (trialstep = 0.204E+00)
 search vector abs. value=  0.566E-06
 reached required accuracy - stopping structural energy minimisation
 writing wavefunctions
Thu Jan  6 00:10:13 CST 2022
