Wed Jan  5 23:58:43 CST 2022
 running on   48 total cores
 distrk:  each k-point on   48 cores,    1 groups
 distr:  one band on   24 cores,    2 groups
 using from now: INCAR     
 vasp.5.3.5 31Mar14 (build Jan 11 2016 19:50:55) complex                        
  
 POSCAR found type information on POSCAR  Zn Ga N  O 
 POSCAR found :  4 types and       8 ions
 scaLAPACK will be used

 ----------------------------------------------------------------------------- 
|                                                                             |
|           W    W    AA    RRRRR   N    N  II  N    N   GGGG   !!!           |
|           W    W   A  A   R    R  NN   N  II  NN   N  G    G  !!!           |
|           W    W  A    A  R    R  N N  N  II  N N  N  G       !!!           |
|           W WW W  AAAAAA  RRRRR   N  N N  II  N  N N  G  GGG   !            |
|           WW  WW  A    A  R   R   N   NN  II  N   NN  G    G                |
|           W    W  A    A  R    R  N    N  II  N    N   GGGG   !!!           |
|                                                                             |
|      For optimal performance we recommend to set                            |
|        NCORE= 4 - approx SQRT( number of cores)                             |
|      NCORE specifies how many cores store one orbital (NPAR=cpu/NCORE).     |
|      This setting can  greatly improve the performance of VASP for DFT.     |
|      The default, NPAR=number of cores might be grossly inefficient         |
|      on modern multi-core architectures or massively parallel machines.     |
|      Do your own testing !!!!                                               |
|      Unfortunately you need to use the default for GW and RPA calculations. |
|      (for HF NCORE is supported but not extensively tested yet)             |
|                                                                             |
 ----------------------------------------------------------------------------- 

 LDA part: xc-table for Pade appr. of Perdew
 POSCAR, INCAR and KPOINTS ok, starting setup
 WARNING: small aliasing (wrap around) errors must be expected
 FFT: planning ...
 WAVECAR not read
 entering main loop
       N       E                     dE             d eps       ncg     rms          rms(c)
DAV:   1     0.862456857279E+03    0.86246E+03   -0.41509E+04 10120   0.285E+03
DAV:   2     0.142852131593E+03   -0.71960E+03   -0.69296E+03 10168   0.710E+02
DAV:   3    -0.272784967122E+02   -0.17013E+03   -0.16616E+03 11540   0.248E+02
DAV:   4    -0.431615757652E+02   -0.15883E+02   -0.15720E+02 13124   0.769E+01
DAV:   5    -0.435775741840E+02   -0.41600E+00   -0.41398E+00 11192   0.121E+01    0.148E+01
DAV:   6    -0.379303616695E+02    0.56472E+01   -0.20581E+01 18328   0.545E+01    0.682E+00
DAV:   7    -0.382100193409E+02   -0.27966E+00   -0.58589E+00 10240   0.140E+01    0.486E+00
DAV:   8    -0.382224543546E+02   -0.12435E-01   -0.25167E+00 16228   0.127E+01    0.277E+00
DAV:   9    -0.380509771904E+02    0.17148E+00   -0.12150E+00 17056   0.111E+01    0.505E-01
DAV:  10    -0.380617004487E+02   -0.10723E-01   -0.15131E-01 10280   0.259E+00    0.260E-01
DAV:  11    -0.380639483816E+02   -0.22479E-02   -0.18826E-02 12708   0.982E-01    0.139E-01
DAV:  12    -0.380643868750E+02   -0.43849E-03   -0.14256E-03 11784   0.628E-01    0.587E-02
DAV:  13    -0.380647108821E+02   -0.32401E-03   -0.46106E-04 10800   0.223E-01    0.274E-02
DAV:  14    -0.380647672967E+02   -0.56415E-04   -0.20022E-04 13256   0.193E-01    0.167E-02
DAV:  15    -0.380647807269E+02   -0.13430E-04   -0.50485E-05 12608   0.993E-02    0.565E-03
DAV:  16    -0.380647854878E+02   -0.47609E-05   -0.18061E-05 11028   0.282E-02    0.436E-03
DAV:  17    -0.380647857051E+02   -0.21732E-06   -0.19773E-06 12544   0.197E-02    0.181E-03
DAV:  18    -0.380647859543E+02   -0.24914E-06   -0.13766E-06 11172   0.698E-03    0.125E-03
DAV:  19    -0.380647859520E+02    0.22192E-08   -0.18773E-07 13136   0.445E-03    0.858E-04
DAV:  20    -0.380647859568E+02   -0.48030E-08   -0.10232E-07 11996   0.331E-03    0.292E-04
DAV:  21    -0.380647859604E+02   -0.35557E-08   -0.14626E-08  7244   0.822E-04
   1 F= -.38064786E+02 E0= -.38064482E+02  d E =-.380648E+02
 curvature:   0.00 expect dE= 0.000E+00 dE for cont linesearch  0.000E+00
 trial: gam= 0.00000 g(F)=  0.147E-02 g(S)=  0.120E-03 ort = 0.000E+00 (trialstep = 0.100E+01)
 search vector abs. value=  0.159E-02
 bond charge predicted
       N       E                     dE             d eps       ncg     rms          rms(c)
DAV:   1    -0.380577105448E+02    0.70754E-02   -0.38757E-01  9856   0.292E+00    0.255E-01
DAV:   2    -0.380585718626E+02   -0.86132E-03   -0.19219E-02 10744   0.880E-01    0.179E-01
DAV:   3    -0.380581318137E+02    0.44005E-03   -0.10948E-03 11888   0.298E-01    0.917E-02
DAV:   4    -0.380580565352E+02    0.75279E-04   -0.37727E-04 10816   0.221E-01    0.313E-02
DAV:   5    -0.380580584460E+02   -0.19108E-05   -0.82191E-05 12496   0.127E-01    0.120E-02
DAV:   6    -0.380580589694E+02   -0.52334E-06   -0.14805E-05 11456   0.596E-02    0.533E-03
DAV:   7    -0.380580590268E+02   -0.57406E-07   -0.31052E-06 11492   0.381E-02    0.232E-03
DAV:   8    -0.380580590106E+02    0.16184E-07   -0.13146E-06 13816   0.144E-02    0.994E-04
DAV:   9    -0.380580590391E+02   -0.28500E-07   -0.22877E-07 11616   0.432E-03    0.624E-04
DAV:  10    -0.380580590467E+02   -0.75934E-08   -0.57544E-08 10036   0.250E-03
   2 F= -.38058059E+02 E0= -.38057863E+02  d E =0.672691E-02
 trial-energy change:    0.006727  1 .order    0.006875   -0.001592    0.015342
 step:   0.0987(harm=  0.0940)  dis= 0.00049  next Energy=   -38.064865 (dE=-0.787E-04)
 bond charge predicted
       N       E                     dE             d eps       ncg     rms          rms(c)
DAV:   1    -0.380646902049E+02   -0.66312E-02   -0.31599E-01  9856   0.261E+00    0.228E-01
DAV:   2    -0.380652732469E+02   -0.58304E-03   -0.14859E-02 11136   0.782E-01    0.163E-01
DAV:   3    -0.380649279198E+02    0.34533E-03   -0.82028E-04 11920   0.257E-01    0.876E-02
DAV:   4    -0.380648613131E+02    0.66607E-04   -0.29502E-04 10844   0.202E-01    0.301E-02
DAV:   5    -0.380648641644E+02   -0.28513E-05   -0.65420E-05 12192   0.114E-01    0.112E-02
DAV:   6    -0.380648649531E+02   -0.78863E-06   -0.12750E-05 11852   0.478E-02    0.477E-03
DAV:   7    -0.380648650783E+02   -0.12522E-06   -0.21066E-06 10992   0.349E-02    0.201E-03
DAV:   8    -0.380648651480E+02   -0.69703E-07   -0.10417E-06 12152   0.108E-02    0.936E-04
DAV:   9    -0.380648651638E+02   -0.15773E-07   -0.20189E-07 12328   0.416E-03    0.580E-04
DAV:  10    -0.380648651634E+02    0.33924E-09   -0.39057E-08  9420   0.278E-03
   3 F= -.38064865E+02 E0= -.38064574E+02  d E =-.792030E-04
 curvature:  -0.05 expect dE=-0.182E-04 dE for cont linesearch -0.158E-08
 trial: gam= 0.24774 g(F)=  0.481E-04 g(S)=  0.339E-03 ort =-0.731E-05 (trialstep = 0.820E+00)
 search vector abs. value=  0.481E-03
 bond charge predicted
       N       E                     dE             d eps       ncg     rms          rms(c)
DAV:   1    -0.380665826537E+02   -0.17175E-02   -0.43104E-02 11784   0.193E+00    0.282E-01
DAV:   2    -0.380654770113E+02    0.11056E-02   -0.77291E-03 11992   0.122E+00    0.127E-01
DAV:   3    -0.380652396391E+02    0.23737E-03   -0.70224E-04 12964   0.303E-01    0.645E-02
DAV:   4    -0.380651481363E+02    0.91503E-04   -0.18021E-04 12956   0.192E-01    0.159E-02
DAV:   5    -0.380651467376E+02    0.13987E-05   -0.63243E-05 10728   0.111E-01    0.683E-03
DAV:   6    -0.380651473443E+02   -0.60672E-06   -0.14287E-05 12648   0.464E-02    0.392E-03
DAV:   7    -0.380651474133E+02   -0.68960E-07   -0.20102E-06 12064   0.326E-02    0.215E-03
DAV:   8    -0.380651475188E+02   -0.10559E-06   -0.83456E-07 14672   0.965E-03    0.920E-04
DAV:   9    -0.380651475492E+02   -0.30375E-07   -0.10035E-07 11580   0.306E-03    0.418E-04
DAV:  10    -0.380651475702E+02   -0.20941E-07   -0.41962E-08  9172   0.216E-03    0.267E-04
DAV:  11    -0.380651475706E+02   -0.45884E-09   -0.81821E-09  5580   0.932E-04
   4 F= -.38065148E+02 E0= -.38064862E+02  d E =-.282407E-03
 trial-energy change:   -0.000282  1 .order   -0.000280   -0.000316   -0.000245
 step:   2.6545(harm=  3.6620)  dis= 0.00139  next Energy=   -38.065444 (dE=-0.579E-03)
 bond charge predicted
       N       E                     dE             d eps       ncg     rms          rms(c)
DAV:   1    -0.380726627383E+02   -0.75152E-02   -0.21531E-01 11720   0.431E+00    0.629E-01
DAV:   2    -0.380671534020E+02    0.55093E-02   -0.38571E-02 11984   0.273E+00    0.284E-01
DAV:   3    -0.380659784174E+02    0.11750E-02   -0.35454E-03 12944   0.680E-01    0.144E-01
DAV:   4    -0.380655258975E+02    0.45252E-03   -0.91472E-04 13020   0.437E-01    0.356E-02
DAV:   5    -0.380655197262E+02    0.61713E-05   -0.31508E-04 10740   0.250E-01    0.153E-02
DAV:   6    -0.380655231861E+02   -0.34600E-05   -0.73348E-05 12580   0.104E-01    0.881E-03
DAV:   7    -0.380655235352E+02   -0.34908E-06   -0.10079E-05 11980   0.731E-02    0.485E-03
DAV:   8    -0.380655240414E+02   -0.50622E-06   -0.42061E-06 14844   0.211E-02    0.207E-03
DAV:   9    -0.380655241487E+02   -0.10730E-06   -0.47315E-07 12308   0.667E-03    0.961E-04
DAV:  10    -0.380655242182E+02   -0.69505E-07   -0.21769E-07 12432   0.413E-03    0.607E-04
DAV:  11    -0.380655242191E+02   -0.85038E-09   -0.46756E-08 11260   0.242E-03
   5 F= -.38065524E+02 E0= -.38065253E+02  d E =-.659056E-03
 curvature:  -2.00 expect dE=-0.886E-03 dE for cont linesearch -0.476E-04
 ZBRENT: increasing intervall
 opt :   6.3240  next Energy=   -38.065212 (dE=-0.347E-03)
 bond charge predicted
       N       E                     dE             d eps       ncg     rms          rms(c)
DAV:   1    -0.380934075249E+02   -0.27883E-01   -0.85624E-01 11612   0.861E+00    0.125E+00
DAV:   2    -0.380716344818E+02    0.21773E-01   -0.15266E-01 11992   0.546E+00    0.567E-01
DAV:   3    -0.380670205047E+02    0.46140E-02   -0.14358E-02 13132   0.132E+00    0.287E-01
DAV:   4    -0.380652249266E+02    0.17956E-02   -0.34891E-03 13008   0.834E-01    0.716E-02
DAV:   5    -0.380651998817E+02    0.25045E-04   -0.12162E-03 10728   0.464E-01    0.305E-02
DAV:   6    -0.380652126735E+02   -0.12792E-04   -0.27485E-04 12712   0.209E-01    0.176E-02
DAV:   7    -0.380652139640E+02   -0.12905E-05   -0.38549E-05 11932   0.145E-01    0.975E-03
DAV:   8    -0.380652159384E+02   -0.19744E-05   -0.16438E-05 14104   0.400E-02    0.421E-03
DAV:   9    -0.380652163087E+02   -0.37027E-06   -0.22416E-06 12444   0.153E-02    0.204E-03
DAV:  10    -0.380652165429E+02   -0.23417E-06   -0.10734E-06 12584   0.125E-02    0.133E-03
DAV:  11    -0.380652165384E+02    0.44338E-08   -0.23269E-07 14264   0.466E-03    0.469E-04
DAV:  12    -0.380652165718E+02   -0.33341E-07   -0.85503E-08 10788   0.331E-03    0.314E-04
DAV:  13    -0.380652165756E+02   -0.37953E-08   -0.15619E-08  7200   0.214E-03
   6 F= -.38065217E+02 E0= -.38064972E+02  d E =-.351412E-03
 curvature:  13.11 expect dE= 0.298E-01 dE for cont linesearch  0.207E-02
 ZBRENT: bracketing found
 ZBRENT: interpolating
 opt :   3.6814  next Energy=   -38.065579 (dE=-0.714E-03)
 bond charge predicted
       N       E                     dE             d eps       ncg     rms          rms(c)
DAV:   1    -0.380802748091E+02   -0.15058E-01   -0.44215E-01 11728   0.610E+00    0.902E-01
DAV:   2    -0.380689142634E+02    0.11361E-01   -0.79642E-02 11872   0.386E+00    0.407E-01
DAV:   3    -0.380664916183E+02    0.24226E-02   -0.71469E-03 12936   0.983E-01    0.206E-01
DAV:   4    -0.380655735876E+02    0.91803E-03   -0.18266E-03 12908   0.613E-01    0.513E-02
DAV:   5    -0.380655660885E+02    0.74991E-05   -0.64743E-04 10720   0.343E-01    0.219E-02
DAV:   6    -0.380655732195E+02   -0.71309E-05   -0.14273E-04 12672   0.147E-01    0.125E-02
DAV:   7    -0.380655738734E+02   -0.65393E-06   -0.20128E-05 12084   0.104E-01    0.678E-03
DAV:   8    -0.380655748085E+02   -0.93512E-06   -0.84050E-06 14388   0.305E-02    0.294E-03
DAV:   9    -0.380655749097E+02   -0.10118E-06   -0.10810E-06 12224   0.103E-02    0.131E-03
DAV:  10    -0.380655749508E+02   -0.41123E-07   -0.45458E-07 12468   0.801E-03    0.891E-04
DAV:  11    -0.380655749455E+02    0.52687E-08   -0.10613E-07 12408   0.278E-03    0.309E-04
DAV:  12    -0.380655749404E+02    0.51823E-08   -0.36823E-08  8812   0.162E-03
   7 F= -.38065575E+02 E0= -.38065312E+02  d E =-.709777E-03
 curvature:  -0.35 expect dE=-0.267E-03 dE for cont linesearch -0.176E-08
 trial: gam= 1.81718 g(F)=  0.593E-03 g(S)=  0.173E-03 ort =-0.156E-05 (trialstep = 0.285E+00)
 search vector abs. value=  0.235E-02
 bond charge predicted
       N       E                     dE             d eps       ncg     rms          rms(c)
DAV:   1    -0.380660698383E+02   -0.49489E-03   -0.26816E-02 10152   0.108E+00    0.142E-01
DAV:   2    -0.380658674318E+02    0.20241E-03   -0.19381E-03 11440   0.595E-01    0.762E-02
DAV:   3    -0.380657731616E+02    0.94270E-04   -0.22569E-04 13288   0.194E-01    0.351E-02
DAV:   4    -0.380657500592E+02    0.23102E-04   -0.70603E-05 11228   0.123E-01    0.702E-03
DAV:   5    -0.380657513015E+02   -0.12423E-05   -0.22112E-05 10736   0.716E-02    0.422E-03
DAV:   6    -0.380657515990E+02   -0.29747E-06   -0.47614E-06 12080   0.318E-02    0.265E-03
DAV:   7    -0.380657517030E+02   -0.10400E-06   -0.10404E-06 12584   0.191E-02    0.119E-03
DAV:   8    -0.380657517241E+02   -0.21092E-07   -0.32904E-07 13696   0.966E-03    0.452E-04
DAV:   9    -0.380657517524E+02   -0.28321E-07   -0.14961E-07 12192   0.282E-03    0.418E-04
DAV:  10    -0.380657517555E+02   -0.31018E-08   -0.95136E-09  5740   0.996E-04
   8 F= -.38065752E+02 E0= -.38065484E+02  d E =-.176815E-03
 trial-energy change:   -0.000177  1 .order   -0.000178   -0.000217   -0.000138
 step:   0.8964(harm=  0.7787)  dis= 0.00240  next Energy=   -38.065891 (dE=-0.316E-03)
 bond charge predicted
       N       E                     dE             d eps       ncg     rms          rms(c)
DAV:   1    -0.380673229411E+02   -0.15712E-02   -0.12312E-01 10152   0.232E+00    0.304E-01
DAV:   2    -0.380663941627E+02    0.92878E-03   -0.88977E-03 11416   0.128E+00    0.163E-01
DAV:   3    -0.380659634953E+02    0.43067E-03   -0.10345E-03 13000   0.419E-01    0.752E-02
DAV:   4    -0.380658592688E+02    0.10423E-03   -0.33475E-04 11244   0.271E-01    0.151E-02
DAV:   5    -0.380658652308E+02   -0.59620E-05   -0.10398E-04 10740   0.159E-01    0.904E-03
DAV:   6    -0.380658667588E+02   -0.15280E-05   -0.23211E-05 12072   0.687E-02    0.569E-03
DAV:   7    -0.380658672158E+02   -0.45702E-06   -0.50440E-06 12596   0.422E-02    0.255E-03
DAV:   8    -0.380658672987E+02   -0.82875E-07   -0.15469E-06 13604   0.211E-02    0.965E-04
DAV:   9    -0.380658674076E+02   -0.10893E-06   -0.73787E-07 12852   0.601E-03    0.901E-04
DAV:  10    -0.380658674123E+02   -0.47003E-08   -0.58993E-08 12276   0.200E-03
   9 F= -.38065867E+02 E0= -.38065589E+02  d E =-.292472E-03
 curvature:  -1.13 expect dE=-0.627E-02 dE for cont linesearch -0.588E-05
 trial: gam= 7.38539 g(F)=  0.494E-02 g(S)=  0.603E-03 ort =-0.111E-03 (trialstep = 0.725E-02)
 search vector abs. value=  0.132E+00
 bond charge predicted
       N       E                     dE             d eps       ncg     rms          rms(c)
DAV:   1    -0.380659107202E+02   -0.43313E-04   -0.10350E-03  9988   0.196E-01    0.244E-02
DAV:   2    -0.380659050755E+02    0.56447E-05   -0.54185E-05 11456   0.974E-02    0.134E-02
DAV:   3    -0.380659019325E+02    0.31430E-05   -0.73704E-06 12472   0.391E-02    0.592E-03
DAV:   4    -0.380659013092E+02    0.62333E-06   -0.25348E-06 10956   0.240E-02    0.131E-03
DAV:   5    -0.380659013518E+02   -0.42665E-07   -0.78545E-07 10864   0.131E-02    0.822E-04
DAV:   6    -0.380659013567E+02   -0.48590E-08   -0.16334E-07 10988   0.636E-03    0.491E-04
DAV:   7    -0.380659013578E+02   -0.11128E-08   -0.41095E-08  8856   0.342E-03
  10 F= -.38065901E+02 E0= -.38065624E+02  d E =-.339455E-04
 ZBRENT: can't locate minimum, use default step
 trial-energy change:   -0.000034  1 .order   -0.000034   -0.000034   -0.000033
 step:   0.0290(harm=  0.1838)  dis= 0.00062  next Energy=   -38.066302 (dE=-0.435E-03)
 bond charge predicted
       N       E                     dE             d eps       ncg     rms          rms(c)
DAV:   1    -0.380660799615E+02   -0.17860E-03   -0.93195E-03  9972   0.589E-01    0.732E-02
DAV:   2    -0.380660274455E+02    0.52516E-04   -0.48907E-04 11432   0.292E-01    0.402E-02
DAV:   3    -0.380659998386E+02    0.27607E-04   -0.66335E-05 12500   0.116E-01    0.178E-02
DAV:   4    -0.380659944597E+02    0.53788E-05   -0.22621E-05 10968   0.719E-02    0.396E-03
DAV:   5    -0.380659948974E+02   -0.43772E-06   -0.69908E-06 10832   0.392E-02    0.246E-03
DAV:   6    -0.380659949671E+02   -0.69643E-07   -0.14578E-06 11944   0.188E-02    0.148E-03
DAV:   7    -0.380659949937E+02   -0.26632E-07   -0.39216E-07 12820   0.103E-02    0.685E-04
DAV:   8    -0.380659949972E+02   -0.34925E-08   -0.12607E-07 12492   0.590E-03    0.258E-04
DAV:   9    -0.380659950093E+02   -0.12050E-07   -0.63723E-08 10748   0.190E-03    0.269E-04
DAV:  10    -0.380659950103E+02   -0.10264E-08   -0.40809E-09  5316   0.779E-04
  11 F= -.38065995E+02 E0= -.38065719E+02  d E =-.127598E-03
 curvature:  -0.59 expect dE=-0.266E-02 dE for cont linesearch -0.712E-04
 ZBRENT: increasing intervall
 opt :   0.0725  next Energy=   -38.066144 (dE=-0.276E-03)
 bond charge predicted
       N       E                     dE             d eps       ncg     rms          rms(c)
DAV:   1    -0.380664878123E+02   -0.49280E-03   -0.37265E-02  9972   0.118E+00    0.146E-01
DAV:   2    -0.380662766160E+02    0.21120E-03   -0.19542E-03 11428   0.586E-01    0.804E-02
DAV:   3    -0.380661668669E+02    0.10975E-03   -0.26556E-04 12516   0.234E-01    0.355E-02
DAV:   4    -0.380661456161E+02    0.21251E-04   -0.90759E-05 10992   0.145E-01    0.790E-03
DAV:   5    -0.380661474539E+02   -0.18378E-05   -0.28077E-05 10788   0.784E-02    0.491E-03
DAV:   6    -0.380661477607E+02   -0.30682E-06   -0.58442E-06 11960   0.378E-02    0.294E-03
DAV:   7    -0.380661478793E+02   -0.11863E-06   -0.15540E-06 12808   0.204E-02    0.134E-03
DAV:   8    -0.380661478922E+02   -0.12911E-07   -0.50702E-07 13748   0.118E-02    0.508E-04
DAV:   9    -0.380661479278E+02   -0.35587E-07   -0.24078E-07 13000   0.382E-03    0.515E-04
DAV:  10    -0.380661479290E+02   -0.11528E-08   -0.12511E-08  6024   0.135E-03
  12 F= -.38066148E+02 E0= -.38065876E+02  d E =-.280517E-03
 curvature:  -1.24 expect dE=-0.393E-02 dE for cont linesearch -0.761E-04
 ZBRENT: increasing intervall
 opt :   0.1595  next Energy=   -38.066297 (dE=-0.430E-03)
 bond charge predicted
       N       E                     dE             d eps       ncg     rms          rms(c)
DAV:   1    -0.380676579324E+02   -0.15100E-02   -0.14901E-01  9972   0.236E+00    0.292E-01
DAV:   2    -0.380668133106E+02    0.84462E-03   -0.77944E-03 11428   0.117E+00    0.161E-01
DAV:   3    -0.380663759464E+02    0.43736E-03   -0.10641E-03 12556   0.469E-01    0.708E-02
DAV:   4    -0.380662922586E+02    0.83688E-04   -0.36398E-04 11008   0.289E-01    0.158E-02
DAV:   5    -0.380662997519E+02   -0.74933E-05   -0.11243E-04 10764   0.158E-01    0.982E-03
DAV:   6    -0.380663010465E+02   -0.12946E-05   -0.23453E-05 12008   0.757E-02    0.588E-03
DAV:   7    -0.380663015475E+02   -0.50102E-06   -0.61404E-06 12892   0.400E-02    0.267E-03
DAV:   8    -0.380663015878E+02   -0.40257E-07   -0.19710E-06 13736   0.232E-02    0.100E-03
DAV:   9    -0.380663017051E+02   -0.11725E-06   -0.91212E-07 13176   0.751E-03    0.102E-03
DAV:  10    -0.380663017038E+02    0.12210E-08   -0.64242E-08 12128   0.273E-03
  13 F= -.38066302E+02 E0= -.38066037E+02  d E =-.434292E-03
 curvature:  -2.43 expect dE=-0.373E-02 dE for cont linesearch -0.618E-05
 ZBRENT: extrapolating
 opt :   0.1817  next Energy=   -38.066308 (dE=-0.441E-03)
 bond charge predicted
       N       E                     dE             d eps       ncg     rms          rms(c)
DAV:   1    -0.380663973141E+02   -0.95609E-04   -0.97155E-03  9972   0.602E-01    0.745E-02
DAV:   2    -0.380663430243E+02    0.54290E-04   -0.50549E-04 11464   0.298E-01    0.410E-02
DAV:   3    -0.380663142717E+02    0.28753E-04   -0.69309E-05 12516   0.122E-01    0.181E-02
DAV:   4    -0.380663087432E+02    0.55285E-05   -0.23656E-05 10988   0.745E-02    0.401E-03
DAV:   5    -0.380663092209E+02   -0.47773E-06   -0.74071E-06 10784   0.396E-02    0.251E-03
DAV:   6    -0.380663092933E+02   -0.72388E-07   -0.15233E-06 11944   0.196E-02    0.150E-03
DAV:   7    -0.380663093220E+02   -0.28636E-07   -0.40502E-07 12768   0.102E-02    0.677E-04
DAV:   8    -0.380663093266E+02   -0.46271E-08   -0.13138E-07 12412   0.598E-03    0.262E-04
DAV:   9    -0.380663093387E+02   -0.12069E-07   -0.63225E-08 10396   0.203E-03    0.269E-04
DAV:  10    -0.380663093400E+02   -0.13183E-08   -0.53248E-09  5348   0.904E-04
  14 F= -.38066309E+02 E0= -.38066047E+02  d E =-.441928E-03
 curvature:  -2.53 expect dE=-0.338E-02 dE for cont linesearch -0.181E-08
 trial: gam=-0.11110 g(F)=  0.127E-02 g(S)=  0.626E-04 ort = 0.972E-05 (trialstep = 0.421E-01)
 search vector abs. value=  0.296E-02
 bond charge predicted
       N       E                     dE             d eps       ncg     rms          rms(c)
DAV:   1    -0.380663617220E+02   -0.52383E-04   -0.90378E-04  9980   0.186E-01    0.186E-02
DAV:   2    -0.380663606083E+02    0.11137E-05   -0.53722E-05 11396   0.817E-02    0.111E-02
DAV:   3    -0.380663589983E+02    0.16100E-05   -0.55225E-06 12284   0.312E-02    0.525E-03
DAV:   4    -0.380663586647E+02    0.33353E-06   -0.18447E-06 10944   0.187E-02    0.122E-03
DAV:   5    -0.380663586884E+02   -0.23712E-07   -0.51760E-07 11468   0.126E-02    0.667E-04
DAV:   6    -0.380663586938E+02   -0.53296E-08   -0.12108E-07 10676   0.546E-03    0.378E-04
DAV:   7    -0.380663586897E+02    0.40577E-08   -0.33514E-08  8524   0.243E-03
  15 F= -.38066359E+02 E0= -.38066099E+02  d E =-.493497E-04
 ZBRENT: can't locate minimum, use default step
 trial-energy change:   -0.000049  1 .order   -0.000049   -0.000056   -0.000042
 step:   0.1685(harm=  0.1701)  dis= 0.00086  next Energy=   -38.066423 (dE=-0.114E-03)
 bond charge predicted
       N       E                     dE             d eps       ncg     rms          rms(c)
DAV:   1    -0.380664514545E+02   -0.92761E-04   -0.81376E-03  9976   0.559E-01    0.559E-02
DAV:   2    -0.380664420452E+02    0.94093E-05   -0.48371E-04 11404   0.245E-01    0.334E-02
DAV:   3    -0.380664265677E+02    0.15478E-04   -0.49276E-05 12168   0.950E-02    0.158E-02
DAV:   4    -0.380664232706E+02    0.32971E-05   -0.16905E-05 10916   0.565E-02    0.364E-03
DAV:   5    -0.380664235220E+02   -0.25139E-06   -0.47672E-06 11508   0.382E-02    0.200E-03
DAV:   6    -0.380664235874E+02   -0.65403E-07   -0.11287E-06 11852   0.167E-02    0.113E-03
DAV:   7    -0.380664235972E+02   -0.98107E-08   -0.32433E-07 12920   0.725E-03    0.608E-04
DAV:   8    -0.380664235912E+02    0.60313E-08   -0.68872E-08 10884   0.417E-03
  16 F= -.38066424E+02 E0= -.38066171E+02  d E =-.114251E-03
 curvature:  -0.19 expect dE=-0.183E-03 dE for cont linesearch -0.175E-07
 trial: gam= 0.71827 g(F)=  0.886E-03 g(S)=  0.839E-04 ort = 0.166E-04 (trialstep = 0.674E-01)
 search vector abs. value=  0.252E-02
 bond charge predicted
       N       E                     dE             d eps       ncg     rms          rms(c)
DAV:   1    -0.380664811230E+02   -0.57526E-04   -0.22946E-03  9916   0.270E-01    0.178E-02
DAV:   2    -0.380664851518E+02   -0.40288E-05   -0.89489E-05 11232   0.802E-02    0.104E-02
DAV:   3    -0.380664834020E+02    0.17498E-05   -0.59813E-06 14860   0.385E-02    0.508E-03
DAV:   4    -0.380664830971E+02    0.30489E-06   -0.19558E-06 11632   0.222E-02    0.114E-03
DAV:   5    -0.380664831521E+02   -0.55015E-07   -0.53929E-07 10736   0.871E-03    0.762E-04
DAV:   6    -0.380664831611E+02   -0.89494E-08   -0.82146E-08 10296   0.400E-03
  17 F= -.38066483E+02 E0= -.38066229E+02  d E =-.595699E-04
 ZBRENT: can't locate minimum, use default step
 trial-energy change:   -0.000060  1 .order   -0.000060   -0.000066   -0.000053
 step:   0.2697(harm=  0.3360)  dis= 0.00154  next Energy=   -38.066589 (dE=-0.165E-03)
 bond charge predicted
       N       E                     dE             d eps       ncg     rms          rms(c)
DAV:   1    -0.380665633806E+02   -0.80228E-04   -0.20648E-02  9916   0.809E-01    0.536E-02
DAV:   2    -0.380666005165E+02   -0.37136E-04   -0.80559E-04 11168   0.241E-01    0.314E-02
DAV:   3    -0.380665849066E+02    0.15610E-04   -0.54222E-05 14816   0.117E-01    0.153E-02
DAV:   4    -0.380665820801E+02    0.28266E-05   -0.17927E-05 11528   0.669E-02    0.337E-03
DAV:   5    -0.380665825114E+02   -0.43135E-06   -0.49303E-06 10704   0.263E-02    0.229E-03
DAV:   6    -0.380665825561E+02   -0.44665E-07   -0.75666E-07 11616   0.123E-02    0.120E-03
DAV:   7    -0.380665825853E+02   -0.29239E-07   -0.17377E-07 13812   0.867E-03    0.450E-04
DAV:   8    -0.380665825884E+02   -0.30927E-08   -0.48745E-08 10012   0.361E-03
  18 F= -.38066583E+02 E0= -.38066323E+02  d E =-.158997E-03
 curvature:  -0.41 expect dE=-0.804E-04 dE for cont linesearch -0.645E-05
 ZBRENT: extrapolating
 opt :   0.3390  next Energy=   -38.066590 (dE=-0.166E-03)
 bond charge predicted
       N       E                     dE             d eps       ncg     rms          rms(c)
DAV:   1    -0.380665886564E+02   -0.60711E-05   -0.24255E-03  9916   0.277E-01    0.183E-02
DAV:   2    -0.380665928775E+02   -0.42210E-05   -0.94069E-05 11216   0.819E-02    0.107E-02
DAV:   3    -0.380665910310E+02    0.18465E-05   -0.63041E-06 14908   0.390E-02    0.520E-03
DAV:   4    -0.380665907154E+02    0.31561E-06   -0.20588E-06 11572   0.227E-02    0.116E-03
DAV:   5    -0.380665907727E+02   -0.57324E-07   -0.56341E-07 10732   0.904E-03    0.780E-04
DAV:   6    -0.380665907825E+02   -0.98375E-08   -0.89122E-08 10464   0.410E-03
  19 F= -.38066591E+02 E0= -.38066329E+02  d E =-.167191E-03
 curvature:  -0.44 expect dE=-0.118E-03 dE for cont linesearch -0.134E-08
 trial: gam= 0.32248 g(F)=  0.227E-03 g(S)=  0.429E-04 ort =-0.278E-05 (trialstep = 0.122E+00)
 search vector abs. value=  0.531E-03
 bond charge predicted
       N       E                     dE             d eps       ncg     rms          rms(c)
DAV:   1    -0.380666177442E+02   -0.26972E-04   -0.16625E-03  9880   0.252E-01    0.204E-02
DAV:   2    -0.380666181151E+02   -0.37092E-06   -0.92122E-05 10896   0.108E-01    0.111E-02
DAV:   3    -0.380666173785E+02    0.73665E-06   -0.76834E-06 14496   0.331E-02    0.588E-03
DAV:   4    -0.380666169564E+02    0.42209E-06   -0.13767E-06 12760   0.176E-02    0.156E-03
DAV:   5    -0.380666170004E+02   -0.44032E-07   -0.50018E-07 10748   0.966E-03    0.605E-04
DAV:   6    -0.380666170060E+02   -0.55697E-08   -0.94904E-08 10604   0.443E-03
  20 F= -.38066617E+02 E0= -.38066357E+02  d E =-.262235E-04
 trial-energy change:   -0.000026  1 .order   -0.000027   -0.000033   -0.000022
 step:   0.3694(harm=  0.3694)  dis= 0.00057  next Energy=   -38.066641 (dE=-0.497E-04)
 bond charge predicted
       N       E                     dE             d eps       ncg     rms          rms(c)
DAV:   1    -0.380666439808E+02   -0.26980E-04   -0.68739E-03  9880   0.512E-01    0.415E-02
DAV:   2    -0.380666455153E+02   -0.15345E-05   -0.38000E-04 10896   0.218E-01    0.225E-02
DAV:   3    -0.380666420868E+02    0.34285E-05   -0.31759E-05 14540   0.663E-02    0.119E-02
DAV:   4    -0.380666400876E+02    0.19991E-05   -0.55763E-06 12708   0.350E-02    0.321E-03
DAV:   5    -0.380666401938E+02   -0.10615E-06   -0.20452E-06 10720   0.190E-02    0.122E-03
DAV:   6    -0.380666402138E+02   -0.19979E-07   -0.38118E-07 12032   0.886E-03    0.760E-04
DAV:   7    -0.380666402059E+02    0.78321E-08   -0.65877E-08 10940   0.568E-03
  21 F= -.38066640E+02 E0= -.38066383E+02  d E =-.494234E-04
 curvature:  -0.36 expect dE=-0.227E-03 dE for cont linesearch -0.434E-08
 trial: gam= 2.29486 g(F)=  0.547E-03 g(S)=  0.776E-04 ort = 0.251E-05 (trialstep = 0.265E-01)
 search vector abs. value=  0.343E-02
 bond charge predicted
       N       E                     dE             d eps       ncg     rms          rms(c)
DAV:   1    -0.380666565453E+02   -0.16332E-04   -0.52259E-04  9860   0.133E-01    0.101E-02
DAV:   2    -0.380666565207E+02    0.24535E-07   -0.22002E-05 10712   0.506E-02    0.545E-03
DAV:   3    -0.380666563489E+02    0.17186E-06   -0.18542E-06 12180   0.177E-02    0.293E-03
DAV:   4    -0.380666562657E+02    0.83229E-07   -0.45161E-07 12580   0.120E-02    0.860E-04
DAV:   5    -0.380666562867E+02   -0.21022E-07   -0.15869E-07 11216   0.614E-03    0.341E-04
DAV:   6    -0.380666562934E+02   -0.67548E-08   -0.41405E-08  8164   0.238E-03
  22 F= -.38066656E+02 E0= -.38066398E+02  d E =-.160875E-04
 ZBRENT: can't locate minimum, use default step
 trial-energy change:   -0.000016  1 .order   -0.000016   -0.000017   -0.000015
 step:   0.1060(harm=  0.3486)  dis= 0.00052  next Energy=   -38.066750 (dE=-0.110E-03)
 bond charge predicted
       N       E                     dE             d eps       ncg     rms          rms(c)
DAV:   1    -0.380666983721E+02   -0.42085E-04   -0.46971E-03  9860   0.399E-01    0.304E-02
DAV:   2    -0.380666987289E+02   -0.35675E-06   -0.19734E-04 10684   0.153E-01    0.163E-02
DAV:   3    -0.380666967678E+02    0.19610E-05   -0.16746E-05 12160   0.551E-02    0.880E-03
DAV:   4    -0.380666957899E+02    0.97793E-06   -0.40802E-06 12608   0.367E-02    0.255E-03
DAV:   5    -0.380666958696E+02   -0.79683E-07   -0.14401E-06 11200   0.186E-02    0.101E-03
DAV:   6    -0.380666959084E+02   -0.38811E-07   -0.38775E-07 11872   0.702E-03    0.591E-04
DAV:   7    -0.380666959113E+02   -0.29045E-08   -0.58308E-08 10172   0.592E-03
  23 F= -.38066696E+02 E0= -.38066434E+02  d E =-.557054E-04
 curvature:  -0.41 expect dE=-0.133E-03 dE for cont linesearch -0.231E-04
 ZBRENT: increasing intervall
 opt :   0.2649  next Energy=   -38.066743 (dE=-0.103E-03)
 bond charge predicted
       N       E                     dE             d eps       ncg     rms          rms(c)
DAV:   1    -0.380667540750E+02   -0.58167E-04   -0.18787E-02  9860   0.796E-01    0.608E-02
DAV:   2    -0.380667557718E+02   -0.16968E-05   -0.78926E-04 10684   0.305E-01    0.327E-02
DAV:   3    -0.380667474973E+02    0.82746E-05   -0.66683E-05 12160   0.108E-01    0.176E-02
DAV:   4    -0.380667433296E+02    0.41676E-05   -0.16167E-05 12544   0.724E-02    0.512E-03
DAV:   5    -0.380667435333E+02   -0.20367E-06   -0.57256E-06 11200   0.368E-02    0.202E-03
DAV:   6    -0.380667436602E+02   -0.12693E-06   -0.15321E-06 11888   0.141E-02    0.118E-03
DAV:   7    -0.380667436700E+02   -0.97148E-08   -0.24466E-07 13120   0.119E-02    0.682E-04
DAV:   8    -0.380667436780E+02   -0.80468E-08   -0.87925E-08 11592   0.275E-03
  24 F= -.38066744E+02 E0= -.38066476E+02  d E =-.103472E-03
 curvature:  -0.84 expect dE=-0.174E-03 dE for cont linesearch -0.633E-05
 ZBRENT: increasing intervall
 opt :   0.5828  next Energy=   -38.066706 (dE=-0.660E-04)
 bond charge predicted
       N       E                     dE             d eps       ncg     rms          rms(c)
DAV:   1    -0.380667463585E+02   -0.26886E-05   -0.75116E-02  9860   0.159E+00    0.122E-01
DAV:   2    -0.380667536260E+02   -0.72675E-05   -0.31545E-03 10692   0.607E-01    0.654E-02
DAV:   3    -0.380667196162E+02    0.34010E-04   -0.26520E-04 12148   0.214E-01    0.352E-02
DAV:   4    -0.380667024154E+02    0.17201E-04   -0.64191E-05 12488   0.142E-01    0.102E-02
DAV:   5    -0.380667029958E+02   -0.58035E-06   -0.22742E-05 11200   0.728E-02    0.404E-03
DAV:   6    -0.380667034409E+02   -0.44511E-06   -0.60342E-06 11884   0.281E-02    0.237E-03
DAV:   7    -0.380667034729E+02   -0.32047E-07   -0.96398E-07 13068   0.235E-02    0.137E-03
DAV:   8    -0.380667035019E+02   -0.28942E-07   -0.35810E-07 13692   0.545E-03    0.521E-04
DAV:   9    -0.380667035020E+02   -0.80036E-10   -0.46474E-08 10260   0.313E-03
  25 F= -.38066704E+02 E0= -.38066422E+02  d E =-.632960E-04
 curvature:   4.96 expect dE= 0.570E-02 dE for cont linesearch  0.241E-03
 ZBRENT: bracketing found
 ZBRENT: interpolating
 opt :   0.3547  next Energy=   -38.066751 (dE=-0.111E-03)
 bond charge predicted
       N       E                     dE             d eps       ncg     rms          rms(c)
DAV:   1    -0.380667729169E+02   -0.69415E-04   -0.38689E-02  9864   0.114E+00    0.874E-02
DAV:   2    -0.380667784913E+02   -0.55744E-05   -0.16295E-03 10684   0.439E-01    0.470E-02
DAV:   3    -0.380667599676E+02    0.18524E-04   -0.13686E-04 12172   0.153E-01    0.253E-02
DAV:   4    -0.380667504847E+02    0.94829E-05   -0.32957E-05 12500   0.103E-01    0.731E-03
DAV:   5    -0.380667505050E+02   -0.20303E-07   -0.11654E-05 11180   0.518E-02    0.289E-03
DAV:   6    -0.380667506708E+02   -0.16577E-06   -0.31026E-06 11892   0.201E-02    0.169E-03
DAV:   7    -0.380667506789E+02   -0.80945E-08   -0.48761E-07 13120   0.168E-02    0.972E-04
DAV:   8    -0.380667506879E+02   -0.90254E-08   -0.18098E-07 13316   0.385E-03    0.372E-04
DAV:   9    -0.380667506953E+02   -0.73337E-08   -0.22609E-08  7556   0.225E-03
  26 F= -.38066751E+02 E0= -.38066479E+02  d E =-.110489E-03
 curvature:  -0.15 expect dE=-0.465E-04 dE for cont linesearch -0.586E-10
 trial: gam= 0.54035 g(F)=  0.277E-03 g(S)=  0.362E-04 ort =-0.116E-05 (trialstep = 0.921E-01)
 search vector abs. value=  0.131E-02
 bond charge predicted
       N       E                     dE             d eps       ncg     rms          rms(c)
DAV:   1    -0.380667786332E+02   -0.27945E-04   -0.23266E-03  9944   0.295E-01    0.245E-02
DAV:   2    -0.380667779242E+02    0.70900E-06   -0.12043E-04 10852   0.131E-01    0.126E-02
DAV:   3    -0.380667769366E+02    0.98761E-06   -0.11342E-05 13116   0.416E-02    0.658E-03
DAV:   4    -0.380667763204E+02    0.61620E-06   -0.18090E-06 12640   0.258E-02    0.186E-03
DAV:   5    -0.380667763538E+02   -0.33420E-07   -0.68593E-07 10744   0.113E-02    0.678E-04
DAV:   6    -0.380667763635E+02   -0.96975E-08   -0.15586E-07 10972   0.442E-03    0.405E-04
DAV:   7    -0.380667763569E+02    0.66407E-08   -0.20695E-08  6924   0.411E-03
  27 F= -.38066776E+02 E0= -.38066505E+02  d E =-.256617E-04
 trial-energy change:   -0.000026  1 .order   -0.000025   -0.000029   -0.000022
 step:   0.2927(harm=  0.3965)  dis= 0.00106  next Energy=   -38.066802 (dE=-0.516E-04)
 bond charge predicted
       N       E                     dE             d eps       ncg     rms          rms(c)
DAV:   1    -0.380668211102E+02   -0.44747E-04   -0.11029E-02  9944   0.643E-01    0.534E-02
DAV:   2    -0.380668178869E+02    0.32233E-05   -0.57046E-04 10872   0.286E-01    0.275E-02
DAV:   3    -0.380668126695E+02    0.52174E-05   -0.54206E-05 13080   0.915E-02    0.143E-02
DAV:   4    -0.380668094483E+02    0.32212E-05   -0.86805E-06 12652   0.570E-02    0.403E-03
DAV:   5    -0.380668095166E+02   -0.68279E-07   -0.32832E-06 10720   0.249E-02    0.148E-03
DAV:   6    -0.380668095638E+02   -0.47212E-07   -0.75669E-07 12016   0.958E-03    0.883E-04
DAV:   7    -0.380668095515E+02    0.12298E-07   -0.11554E-07 12792   0.892E-03    0.509E-04
DAV:   8    -0.380668095462E+02    0.52742E-08   -0.39206E-08  8412   0.197E-03
  28 F= -.38066810E+02 E0= -.38066539E+02  d E =-.588510E-04
 curvature:  -0.74 expect dE=-0.241E-03 dE for cont linesearch -0.434E-05
 ZBRENT: increasing intervall
 opt :   0.6939  next Energy=   -38.066784 (dE=-0.331E-04)
 bond charge predicted
       N       E                     dE             d eps       ncg     rms          rms(c)
DAV:   1    -0.380668287081E+02   -0.19157E-04   -0.44097E-02  9944   0.128E+00    0.107E-01
DAV:   2    -0.380668157577E+02    0.12950E-04   -0.22818E-03 10872   0.571E-01    0.549E-02
DAV:   3    -0.380667939326E+02    0.21825E-04   -0.21600E-04 13072   0.182E-01    0.286E-02
DAV:   4    -0.380667805295E+02    0.13403E-04   -0.34569E-05 12660   0.113E-01    0.810E-03
DAV:   5    -0.380667806341E+02   -0.10465E-06   -0.13095E-05 10732   0.494E-02    0.296E-03
DAV:   6    -0.380667808162E+02   -0.18213E-06   -0.29803E-06 12032   0.190E-02    0.176E-03
DAV:   7    -0.380667807949E+02    0.21374E-07   -0.45454E-07 13220   0.177E-02    0.102E-03
DAV:   8    -0.380667807901E+02    0.47708E-08   -0.17138E-07 13404   0.392E-03    0.392E-04
DAV:   9    -0.380667807849E+02    0.52351E-08   -0.33649E-08  8992   0.275E-03
  29 F= -.38066781E+02 E0= -.38066513E+02  d E =-.300896E-04
 curvature:   4.36 expect dE= 0.808E-02 dE for cont linesearch  0.163E-03
 ZBRENT: bracketing found
 ZBRENT: interpolating
 opt :   0.4067  next Energy=   -38.066815 (dE=-0.639E-04)
 bond charge predicted
       N       E                     dE             d eps       ncg     rms          rms(c)
DAV:   1    -0.380668389637E+02   -0.58174E-04   -0.22601E-02  9944   0.922E-01    0.765E-02
DAV:   2    -0.380668331198E+02    0.58439E-05   -0.11715E-03 10844   0.411E-01    0.394E-02
DAV:   3    -0.380668208043E+02    0.12316E-04   -0.11096E-04 13120   0.130E-01    0.205E-02
DAV:   4    -0.380668132659E+02    0.75384E-05   -0.17635E-05 12720   0.809E-02    0.579E-03
DAV:   5    -0.380668131172E+02    0.14874E-06   -0.66499E-06 10744   0.350E-02    0.212E-03
DAV:   6    -0.380668132068E+02   -0.89661E-07   -0.15081E-06 11988   0.136E-02    0.126E-03
DAV:   7    -0.380668132291E+02   -0.22247E-07   -0.23383E-07 13216   0.126E-02    0.728E-04
DAV:   8    -0.380668132444E+02   -0.15307E-07   -0.85179E-08 12040   0.281E-03    0.284E-04
DAV:   9    -0.380668132537E+02   -0.93496E-08   -0.19884E-08  7496   0.198E-03
  30 F= -.38066813E+02 E0= -.38066544E+02  d E =-.625585E-04
 curvature:  -0.13 expect dE=-0.787E-04 dE for cont linesearch -0.115E-09
 trial: gam= 1.85870 g(F)=  0.422E-03 g(S)=  0.165E-03 ort =-0.106E-05 (trialstep = 0.398E-01)
 search vector abs. value=  0.512E-02
 bond charge predicted
       N       E                     dE             d eps       ncg     rms          rms(c)
DAV:   1    -0.380668349930E+02   -0.21749E-04   -0.16750E-03  9856   0.232E-01    0.166E-02
DAV:   2    -0.380668356121E+02   -0.61904E-06   -0.55228E-05 10848   0.816E-02    0.950E-03
DAV:   3    -0.380668347758E+02    0.83630E-06   -0.54886E-06 12136   0.320E-02    0.487E-03
DAV:   4    -0.380668344401E+02    0.33568E-06   -0.12651E-06 12352   0.225E-02    0.125E-03
DAV:   5    -0.380668344751E+02   -0.34994E-07   -0.50443E-07 10888   0.100E-02    0.600E-04
DAV:   6    -0.380668344868E+02   -0.11693E-07   -0.12627E-07 10656   0.419E-03    0.356E-04
DAV:   7    -0.380668344869E+02   -0.80036E-10   -0.19763E-08  7024   0.375E-03
  31 F= -.38066834E+02 E0= -.38066563E+02  d E =-.212331E-04
 ZBRENT: can't locate minimum, use default step
 trial-energy change:   -0.000021  1 .order   -0.000021   -0.000023   -0.000019
 step:   0.1591(harm=  0.2264)  dis= 0.00114  next Energy=   -38.066879 (dE=-0.662E-04)
 bond charge predicted
       N       E                     dE             d eps       ncg     rms          rms(c)
DAV:   1    -0.380668786842E+02   -0.44197E-04   -0.15080E-02  9856   0.697E-01    0.498E-02
DAV:   2    -0.380668845527E+02   -0.58685E-05   -0.49648E-04 10856   0.245E-01    0.285E-02
DAV:   3    -0.380668765118E+02    0.80409E-05   -0.49602E-05 12136   0.957E-02    0.146E-02
DAV:   4    -0.380668733360E+02    0.31758E-05   -0.11453E-05 12344   0.678E-02    0.375E-03
DAV:   5    -0.380668735699E+02   -0.23389E-06   -0.45473E-06 10868   0.304E-02    0.181E-03
DAV:   6    -0.380668736576E+02   -0.87721E-07   -0.11519E-06 12056   0.125E-02    0.107E-03
DAV:   7    -0.380668736639E+02   -0.62782E-08   -0.20409E-07 13632   0.112E-02    0.596E-04
DAV:   8    -0.380668736644E+02   -0.50977E-09   -0.69226E-08 11496   0.312E-03
  32 F= -.38066874E+02 E0= -.38066596E+02  d E =-.604107E-04
 curvature:  -0.86 expect dE=-0.166E-03 dE for cont linesearch -0.567E-05
 ZBRENT: increasing intervall
 opt :   0.3978  next Energy=   -38.066846 (dE=-0.330E-04)
 bond charge predicted
       N       E                     dE             d eps       ncg     rms          rms(c)
DAV:   1    -0.380668653062E+02    0.83577E-05   -0.60308E-02  9856   0.139E+00    0.997E-02
DAV:   2    -0.380668888757E+02   -0.23570E-04   -0.19839E-03 10880   0.489E-01    0.569E-02
DAV:   3    -0.380668561675E+02    0.32708E-04   -0.19797E-04 12136   0.191E-01    0.293E-02
DAV:   4    -0.380668433057E+02    0.12862E-04   -0.45507E-05 12288   0.135E-01    0.754E-03
DAV:   5    -0.380668441550E+02   -0.84932E-06   -0.18285E-05 10924   0.608E-02    0.361E-03
DAV:   6    -0.380668444821E+02   -0.32706E-06   -0.45933E-06 12048   0.249E-02    0.214E-03
DAV:   7    -0.380668445103E+02   -0.28234E-07   -0.81809E-07 13652   0.223E-02    0.120E-03
DAV:   8    -0.380668445208E+02   -0.10523E-07   -0.30172E-07 16456   0.633E-03    0.495E-04
DAV:   9    -0.380668445193E+02    0.14743E-08   -0.39047E-08  9300   0.257E-03
  33 F= -.38066845E+02 E0= -.38066555E+02  d E =-.312656E-04
 curvature:   4.18 expect dE= 0.474E-02 dE for cont linesearch  0.144E-03
 ZBRENT: bracketing found
 ZBRENT: interpolating
 opt :   0.2316  next Energy=   -38.066880 (dE=-0.671E-04)
 bond charge predicted
       N       E                     dE             d eps       ncg     rms          rms(c)
DAV:   1    -0.380668903306E+02   -0.45810E-04   -0.29251E-02  9856   0.972E-01    0.695E-02
DAV:   2    -0.380669027002E+02   -0.12370E-04   -0.96694E-04 10848   0.343E-01    0.397E-02
DAV:   3    -0.380668861885E+02    0.16512E-04   -0.96227E-05 12136   0.134E-01    0.204E-02
DAV:   4    -0.380668797277E+02    0.64608E-05   -0.22318E-05 12428   0.940E-02    0.522E-03
DAV:   5    -0.380668800344E+02   -0.30676E-06   -0.87465E-06 10840   0.413E-02    0.251E-03
DAV:   6    -0.380668801619E+02   -0.12747E-06   -0.21728E-06 12056   0.174E-02    0.148E-03
DAV:   7    -0.380668801768E+02   -0.14894E-07   -0.38663E-07 13648   0.154E-02    0.829E-04
DAV:   8    -0.380668801901E+02   -0.13310E-07   -0.14219E-07 15072   0.426E-03    0.341E-04
DAV:   9    -0.380668801983E+02   -0.82205E-08   -0.19838E-08  7332   0.184E-03
  34 F= -.38066880E+02 E0= -.38066599E+02  d E =-.669446E-04
 curvature:  -0.19 expect dE=-0.553E-04 dE for cont linesearch -0.170E-10
 trial: gam= 0.48255 g(F)=  0.216E-03 g(S)=  0.713E-04 ort = 0.673E-06 (trialstep = 0.781E-01)
 search vector abs. value=  0.148E-02
 bond charge predicted
       N       E                     dE             d eps       ncg     rms          rms(c)
DAV:   1    -0.380669016554E+02   -0.21465E-04   -0.18049E-03  9856   0.236E-01    0.155E-02
DAV:   2    -0.380669031086E+02   -0.14531E-05   -0.48420E-05 11212   0.647E-02    0.910E-03
DAV:   3    -0.380669018664E+02    0.12422E-05   -0.34746E-06 12416   0.284E-02    0.423E-03
DAV:   4    -0.380669016093E+02    0.25709E-06   -0.12954E-06 12352   0.186E-02    0.944E-04
DAV:   5    -0.380669016339E+02   -0.24535E-07   -0.48792E-07 10720   0.752E-03    0.626E-04
DAV:   6    -0.380669016370E+02   -0.31869E-08   -0.90369E-08  9228   0.477E-03
  35 F= -.38066902E+02 E0= -.38066621E+02  d E =-.214387E-04
 ZBRENT: can't locate minimum, use default step
 trial-energy change:   -0.000021  1 .order   -0.000021   -0.000022   -0.000020
 step:   0.3125(harm=  0.7001)  dis= 0.00104  next Energy=   -38.066981 (dE=-0.101E-03)
 bond charge predicted
       N       E                     dE             d eps       ncg     rms          rms(c)
DAV:   1    -0.380669521744E+02   -0.50541E-04   -0.16250E-02  9856   0.709E-01    0.466E-02
DAV:   2    -0.380669646667E+02   -0.12492E-04   -0.43726E-04 11236   0.197E-01    0.273E-02
DAV:   3    -0.380669536739E+02    0.10993E-04   -0.31754E-05 12432   0.874E-02    0.127E-02
DAV:   4    -0.380669514303E+02    0.22436E-05   -0.11768E-05 12140   0.564E-02    0.282E-03
DAV:   5    -0.380669517456E+02   -0.31527E-06   -0.46017E-06 10704   0.230E-02    0.188E-03
DAV:   6    -0.380669517922E+02   -0.46571E-07   -0.91079E-07 13412   0.150E-02    0.112E-03
DAV:   7    -0.380669517974E+02   -0.52046E-08   -0.18109E-07 10944   0.715E-03    0.569E-04
DAV:   8    -0.380669518034E+02   -0.60550E-08   -0.84727E-08  8856   0.311E-03
  36 F= -.38066952E+02 E0= -.38066673E+02  d E =-.716051E-04
 curvature:  -1.10 expect dE=-0.321E-03 dE for cont linesearch -0.216E-04
 ZBRENT: increasing intervall
 opt :   0.7813  next Energy=   -38.066992 (dE=-0.111E-03)
 bond charge predicted
       N       E                     dE             d eps       ncg     rms          rms(c)
DAV:   1    -0.380669892594E+02   -0.37462E-04   -0.64989E-02  9856   0.142E+00    0.930E-02
DAV:   2    -0.380670378546E+02   -0.48595E-04   -0.17425E-03 11228   0.393E-01    0.545E-02
DAV:   3    -0.380669940260E+02    0.43829E-04   -0.12695E-04 12432   0.174E-01    0.253E-02
DAV:   4    -0.380669851971E+02    0.88289E-05   -0.47296E-05 12328   0.112E-01    0.563E-03
DAV:   5    -0.380669864756E+02   -0.12785E-05   -0.17818E-05 10648   0.452E-02    0.375E-03
DAV:   6    -0.380669866638E+02   -0.18818E-06   -0.35125E-06 13448   0.291E-02    0.222E-03
DAV:   7    -0.380669866877E+02   -0.23918E-07   -0.69060E-07 12112   0.143E-02    0.113E-03
DAV:   8    -0.380669867163E+02   -0.28619E-07   -0.33784E-07 12788   0.607E-03    0.430E-04
DAV:   9    -0.380669867226E+02   -0.63337E-08   -0.81151E-08  7652   0.400E-03
  37 F= -.38066987E+02 E0= -.38066711E+02  d E =-.106524E-03
 curvature:  -2.03 expect dE=-0.240E-02 dE for cont linesearch -0.125E-07
 trial: gam= 4.11438 g(F)=  0.674E-03 g(S)=  0.505E-03 ort =-0.302E-05 (trialstep = 0.124E-01)
 search vector abs. value=  0.262E-01
 bond charge predicted
       N       E                     dE             d eps       ncg     rms          rms(c)
DAV:   1    -0.380670074126E+02   -0.20696E-04   -0.76757E-04  9868   0.161E-01    0.133E-02
DAV:   2    -0.380670071989E+02    0.21374E-06   -0.28374E-05 10776   0.571E-02    0.716E-03
DAV:   3    -0.380670065030E+02    0.69591E-06   -0.27010E-06 12404   0.198E-02    0.359E-03
DAV:   4    -0.380670062479E+02    0.25506E-06   -0.74345E-07 13480   0.143E-02    0.713E-04
DAV:   5    -0.380670062503E+02   -0.23556E-08   -0.26783E-07 10744   0.629E-03    0.411E-04
DAV:   6    -0.380670062541E+02   -0.38472E-08   -0.46998E-08  7772   0.208E-03
  38 F= -.38067006E+02 E0= -.38066730E+02  d E =-.195315E-04
 ZBRENT: can't locate minimum, use default step
 trial-energy change:   -0.000020  1 .order   -0.000014   -0.000014   -0.000014
 step:   0.0494(harm=  0.2374)  dis= 0.00063  next Energy=   -38.067125 (dE=-0.139E-03)
 bond charge predicted
       N       E                     dE             d eps       ncg     rms          rms(c)
DAV:   1    -0.380670547801E+02   -0.48530E-04   -0.69112E-03  9864   0.485E-01    0.399E-02
DAV:   2    -0.380670522422E+02    0.25379E-05   -0.25551E-04 10748   0.175E-01    0.215E-02
DAV:   3    -0.380670465721E+02    0.56701E-05   -0.25304E-05 12444   0.648E-02    0.108E-02
DAV:   4    -0.380670445146E+02    0.20575E-05   -0.68427E-06 13504   0.448E-02    0.216E-03
DAV:   5    -0.380670446241E+02   -0.10957E-06   -0.24873E-06 10760   0.189E-02    0.122E-03
DAV:   6    -0.380670446607E+02   -0.36542E-07   -0.47723E-07 13224   0.693E-03    0.806E-04
DAV:   7    -0.380670446673E+02   -0.65888E-08   -0.74649E-08  8600   0.584E-03
  39 F= -.38067045E+02 E0= -.38066766E+02  d E =-.579446E-04
 curvature:  -0.81 expect dE=-0.661E-03 dE for cont linesearch -0.272E-04
 ZBRENT: increasing intervall
 opt :   0.1235  next Energy=   -38.067102 (dE=-0.115E-03)
 bond charge predicted
       N       E                     dE             d eps       ncg     rms          rms(c)
DAV:   1    -0.380671436264E+02   -0.98966E-04   -0.27648E-02  9864   0.969E-01    0.797E-02
DAV:   2    -0.380671326420E+02    0.10984E-04   -0.10222E-03 10748   0.348E-01    0.430E-02
DAV:   3    -0.380671105418E+02    0.22100E-04   -0.10069E-04 12436   0.127E-01    0.216E-02
DAV:   4    -0.380671025520E+02    0.79898E-05   -0.27291E-05 13560   0.892E-02    0.433E-03
DAV:   5    -0.380671030652E+02   -0.51316E-06   -0.98270E-06 10732   0.376E-02    0.245E-03
DAV:   6    -0.380671032080E+02   -0.14282E-06   -0.18855E-06 13340   0.133E-02    0.161E-03
DAV:   7    -0.380671032243E+02   -0.16352E-07   -0.30311E-07 13052   0.115E-02    0.879E-04
DAV:   8    -0.380671032541E+02   -0.29735E-07   -0.14392E-07 12152   0.245E-03    0.340E-04
DAV:   9    -0.380671032525E+02    0.15607E-08   -0.13088E-08  6476   0.170E-03
  40 F= -.38067103E+02 E0= -.38066821E+02  d E =-.116530E-03
 curvature:  -1.70 expect dE=-0.968E-03 dE for cont linesearch -0.253E-04
 ZBRENT: increasing intervall
 opt :   0.2718  next Energy=   -38.067149 (dE=-0.162E-03)
 bond charge predicted
       N       E                     dE             d eps       ncg     rms          rms(c)
DAV:   1    -0.380673051117E+02   -0.20186E-03   -0.11057E-01  9864   0.194E+00    0.159E-01
DAV:   2    -0.380672614417E+02    0.43670E-04   -0.40850E-03 10748   0.697E-01    0.861E-02
DAV:   3    -0.380671741998E+02    0.87242E-04   -0.40213E-04 12436   0.253E-01    0.431E-02
DAV:   4    -0.380671427893E+02    0.31411E-04   -0.10861E-04 13464   0.177E-01    0.860E-03
DAV:   5    -0.380671450466E+02   -0.22573E-05   -0.39174E-05 10692   0.750E-02    0.487E-03
DAV:   6    -0.380671456100E+02   -0.56337E-06   -0.74691E-06 13380   0.266E-02    0.319E-03
DAV:   7    -0.380671456585E+02   -0.48530E-07   -0.12206E-06 13720   0.230E-02    0.173E-03
DAV:   8    -0.380671457536E+02   -0.95107E-07   -0.57497E-07 12352   0.495E-03    0.641E-04
DAV:   9    -0.380671457514E+02    0.22674E-08   -0.59533E-08 11188   0.332E-03
  41 F= -.38067146E+02 E0= -.38066855E+02  d E =-.159029E-03
 curvature:  -3.08 expect dE=-0.334E-02 dE for cont linesearch -0.144E-06
 trial: gam= 0.93094 g(F)=  0.838E-03 g(S)=  0.247E-03 ort =-0.350E-04 (trialstep = 0.642E-01)
 search vector abs. value=  0.237E-01
 bond charge predicted
       N       E                     dE             d eps       ncg     rms          rms(c)
DAV:   1    -0.380672631360E+02   -0.11738E-03   -0.18594E-02  9880   0.829E-01    0.780E-02
DAV:   2    -0.380672346730E+02    0.28463E-04   -0.94289E-04 11208   0.350E-01    0.383E-02
DAV:   3    -0.380672182029E+02    0.16470E-04   -0.82189E-05 13032   0.956E-02    0.199E-02
DAV:   4    -0.380672108148E+02    0.73882E-05   -0.20454E-05 13704   0.586E-02    0.460E-03
DAV:   5    -0.380672109568E+02   -0.14200E-06   -0.66459E-06 10740   0.278E-02    0.224E-03
DAV:   6    -0.380672109934E+02   -0.36608E-07   -0.92333E-07 13232   0.115E-02    0.143E-03
DAV:   7    -0.380672109996E+02   -0.62469E-08   -0.16671E-07 12884   0.987E-03    0.713E-04
DAV:   8    -0.380672110109E+02   -0.11252E-07   -0.53881E-08 10724   0.244E-03    0.259E-04
DAV:   9    -0.380672110138E+02   -0.29199E-08   -0.15603E-08  6692   0.105E-03
  42 F= -.38067211E+02 E0= -.38066922E+02  d E =-.652624E-04
 ZBRENT: can't locate minimum, use default step
 trial-energy change:   -0.000065  1 .order   -0.000065   -0.000068   -0.000062
 step:   0.2570(harm=  0.7856)  dis= 0.00327  next Energy=   -38.067559 (dE=-0.413E-03)
 bond charge predicted
       N       E                     dE             d eps       ncg     rms          rms(c)
DAV:   1    -0.380678392085E+02   -0.62820E-03   -0.16742E-01  9880   0.249E+00    0.234E-01
DAV:   2    -0.380675815627E+02    0.25765E-03   -0.84933E-03 11184   0.106E+00    0.115E-01
DAV:   3    -0.380674367643E+02    0.14480E-03   -0.74121E-04 12744   0.289E-01    0.597E-02
DAV:   4    -0.380673721249E+02    0.64639E-04   -0.18684E-04 13468   0.182E-01    0.137E-02
DAV:   5    -0.380673741421E+02   -0.20172E-05   -0.61483E-05 10696   0.874E-02    0.671E-03
DAV:   6    -0.380673746394E+02   -0.49733E-06   -0.91710E-06 13228   0.355E-02    0.428E-03
DAV:   7    -0.380673746598E+02   -0.20410E-07   -0.16558E-06 13284   0.304E-02    0.218E-03
DAV:   8    -0.380673747441E+02   -0.84264E-07   -0.60294E-07 12764   0.731E-03    0.809E-04
DAV:   9    -0.380673747558E+02   -0.11737E-07   -0.13918E-07 13072   0.366E-03    0.441E-04
DAV:  10    -0.380673747649E+02   -0.91054E-08   -0.38643E-08 10336   0.168E-03
  43 F= -.38067375E+02 E0= -.38067089E+02  d E =-.229014E-03
 curvature:  -4.10 expect dE=-0.327E-02 dE for cont linesearch -0.883E-04
 ZBRENT: increasing intervall
 opt :   0.6425  next Energy=   -38.067553 (dE=-0.407E-03)
 bond charge predicted
       N       E                     dE             d eps       ncg     rms          rms(c)
DAV:   1    -0.380693738775E+02   -0.19991E-02   -0.66998E-01  9880   0.499E+00    0.467E-01
DAV:   2    -0.380683612329E+02    0.10126E-02   -0.33935E-02 11160   0.212E+00    0.230E-01
DAV:   3    -0.380677898900E+02    0.57134E-03   -0.29790E-03 12784   0.576E-01    0.119E-01
DAV:   4    -0.380675333987E+02    0.25649E-03   -0.73431E-04 13380   0.355E-01    0.273E-02
DAV:   5    -0.380675423301E+02   -0.89313E-05   -0.24458E-04 10684   0.170E-01    0.134E-02
DAV:   6    -0.380675443046E+02   -0.19746E-05   -0.35304E-05 13216   0.692E-02    0.845E-03
DAV:   7    -0.380675443466E+02   -0.41999E-07   -0.64386E-06 13308   0.597E-02    0.427E-03
DAV:   8    -0.380675446455E+02   -0.29891E-06   -0.23504E-06 12320   0.144E-02    0.161E-03
DAV:   9    -0.380675446844E+02   -0.38812E-07   -0.56128E-07 15028   0.745E-03    0.901E-04
DAV:  10    -0.380675447038E+02   -0.19468E-07   -0.15165E-07 12564   0.321E-03    0.489E-04
DAV:  11    -0.380675447174E+02   -0.13595E-07   -0.30294E-08  8408   0.222E-03    0.191E-04
DAV:  12    -0.380675447250E+02   -0.76316E-08   -0.80628E-09  6824   0.124E-03
  44 F= -.38067545E+02 E0= -.38067266E+02  d E =-.398974E-03
 curvature:  -8.30 expect dE=-0.134E-01 dE for cont linesearch -0.192E-04
 trial: gam= 1.20348 g(F)=  0.920E-03 g(S)=  0.700E-03 ort = 0.234E-03 (trialstep = 0.117E+00)
 search vector abs. value=  0.366E-01
 bond charge predicted
       N       E                     dE             d eps       ncg     rms          rms(c)
DAV:   1    -0.380682075366E+02   -0.66282E-03   -0.88940E-02  9960   0.201E+00    0.218E-01
DAV:   2    -0.380678902526E+02    0.31728E-03   -0.69997E-03 11212   0.103E+00    0.102E-01
DAV:   3    -0.380677765403E+02    0.11371E-03   -0.59522E-04 13204   0.248E-01    0.526E-02
DAV:   4    -0.380677219206E+02    0.54620E-04   -0.12152E-04 12984   0.124E-01    0.119E-02
DAV:   5    -0.380677230786E+02   -0.11579E-05   -0.45391E-05 10856   0.579E-02    0.567E-03
DAV:   6    -0.380677232334E+02   -0.15483E-06   -0.39072E-06 13904   0.174E-02    0.357E-03
DAV:   7    -0.380677232703E+02   -0.36878E-07   -0.71850E-07 13944   0.143E-02    0.175E-03
DAV:   8    -0.380677233110E+02   -0.40771E-07   -0.17982E-07 11040   0.612E-03    0.595E-04
DAV:   9    -0.380677233263E+02   -0.15310E-07   -0.10292E-07 12464   0.222E-03    0.383E-04
DAV:  10    -0.380677233335E+02   -0.71232E-08   -0.14918E-08  6380   0.126E-03
  45 F= -.38067723E+02 E0= -.38067438E+02  d E =-.178608E-03
 trial-energy change:   -0.000179  1 .order   -0.000176   -0.000222   -0.000131
 step:   0.2446(harm=  0.2837)  dis= 0.00368  next Energy=   -38.067798 (dE=-0.253E-03)
 bond charge predicted
       N       E                     dE             d eps       ncg     rms          rms(c)
DAV:   1    -0.380683917888E+02   -0.66846E-03   -0.10652E-01  9956   0.220E+00    0.239E-01
DAV:   2    -0.380680132618E+02    0.37853E-03   -0.83735E-03 11176   0.112E+00    0.112E-01
DAV:   3    -0.380678777010E+02    0.13556E-03   -0.71306E-04 13188   0.271E-01    0.575E-02
DAV:   4    -0.380678125217E+02    0.65179E-04   -0.14537E-04 12992   0.136E-01    0.130E-02
DAV:   5    -0.380678139289E+02   -0.14071E-05   -0.54397E-05 10868   0.631E-02    0.621E-03
DAV:   6    -0.380678141123E+02   -0.18342E-06   -0.46551E-06 13892   0.185E-02    0.390E-03
DAV:   7    -0.380678141540E+02   -0.41742E-07   -0.86357E-07 13996   0.151E-02    0.190E-03
DAV:   8    -0.380678141983E+02   -0.44231E-07   -0.21376E-07 11000   0.668E-03    0.652E-04
DAV:   9    -0.380678142161E+02   -0.17812E-07   -0.12540E-07 12940   0.239E-03    0.425E-04
DAV:  10    -0.380678142237E+02   -0.76311E-08   -0.18203E-08  6940   0.136E-03
  46 F= -.38067814E+02 E0= -.38067522E+02  d E =-.269499E-03
 curvature:  -2.58 expect dE=-0.510E-02 dE for cont linesearch -0.472E-05
 trial: gam= 1.31607 g(F)=  0.179E-02 g(S)=  0.190E-03 ort = 0.259E-03 (trialstep = 0.789E-01)
 search vector abs. value=  0.660E-01
 bond charge predicted
       N       E                     dE             d eps       ncg     rms          rms(c)
DAV:   1    -0.380683923563E+02   -0.57814E-03   -0.73584E-02  9904   0.180E+00    0.197E-01
DAV:   2    -0.380681224994E+02    0.26986E-03   -0.56702E-03 11244   0.924E-01    0.913E-02
DAV:   3    -0.380680300817E+02    0.92418E-04   -0.49073E-04 13044   0.228E-01    0.475E-02
DAV:   4    -0.380679856866E+02    0.44395E-04   -0.10667E-04 13032   0.116E-01    0.113E-02
DAV:   5    -0.380679863471E+02   -0.66050E-06   -0.35889E-05 10864   0.579E-02    0.531E-03
DAV:   6    -0.380679864857E+02   -0.13864E-06   -0.43673E-06 13336   0.275E-02    0.322E-03
DAV:   7    -0.380679865042E+02   -0.18546E-07   -0.70815E-07 12704   0.214E-02    0.160E-03
DAV:   8    -0.380679865435E+02   -0.39230E-07   -0.24490E-07 11312   0.542E-03    0.497E-04
DAV:   9    -0.380679865601E+02   -0.16616E-07   -0.60078E-08 11656   0.207E-03    0.312E-04
DAV:  10    -0.380679865685E+02   -0.84492E-08   -0.12974E-08  5888   0.158E-03
  47 F= -.38067987E+02 E0= -.38067698E+02  d E =-.172345E-03
 ZBRENT: can't locate minimum, use default step
 trial-energy change:   -0.000172  1 .order   -0.000165   -0.000183   -0.000148
 step:   0.3155(harm=  0.4095)  dis= 0.00663  next Energy=   -38.068289 (dE=-0.475E-03)
 bond charge predicted
       N       E                     dE             d eps       ncg     rms          rms(c)
DAV:   1    -0.380719184591E+02   -0.39319E-02   -0.66277E-01  9900   0.543E+00    0.591E-01
DAV:   2    -0.380695135839E+02    0.24049E-02   -0.50867E-02 11212   0.278E+00    0.274E-01
DAV:   3    -0.380686984620E+02    0.81512E-03   -0.44440E-03 12988   0.679E-01    0.142E-01
DAV:   4    -0.380683041790E+02    0.39428E-03   -0.94381E-04 12952   0.342E-01    0.336E-02
DAV:   5    -0.380683119996E+02   -0.78206E-05   -0.32216E-04 10816   0.169E-01    0.159E-02
DAV:   6    -0.380683133211E+02   -0.13216E-05   -0.37401E-05 13376   0.782E-02    0.958E-03
DAV:   7    -0.380683133674E+02   -0.46255E-07   -0.60716E-06 12784   0.611E-02    0.472E-03
DAV:   8    -0.380683136202E+02   -0.25280E-06   -0.20305E-06 11392   0.158E-02    0.146E-03
DAV:   9    -0.380683137200E+02   -0.99831E-07   -0.52347E-07 13232   0.658E-03    0.938E-04
DAV:  10    -0.380683137509E+02   -0.30827E-07   -0.13133E-07 13196   0.427E-03    0.422E-04
DAV:  11    -0.380683137783E+02   -0.27440E-07   -0.33608E-08  8416   0.393E-03    0.197E-04
DAV:  12    -0.380683137791E+02   -0.83537E-09   -0.79944E-09  6160   0.125E-03
  48 F= -.38068314E+02 E0= -.38068036E+02  d E =-.499555E-03
 curvature:  -5.36 expect dE=-0.303E-02 dE for cont linesearch -0.252E-04
 ZBRENT: extrapolating
 opt :   0.4159  next Energy=   -38.068342 (dE=-0.528E-03)
 bond charge predicted
       N       E                     dE             d eps       ncg     rms          rms(c)
DAV:   1    -0.380689916658E+02   -0.67789E-03   -0.11903E-01  9904   0.229E+00    0.250E-01
DAV:   2    -0.380685610977E+02    0.43057E-03   -0.91126E-03 11252   0.117E+00    0.116E-01
DAV:   3    -0.380684129474E+02    0.14815E-03   -0.78750E-04 13076   0.288E-01    0.603E-02
DAV:   4    -0.380683418176E+02    0.71130E-04   -0.17010E-04 13004   0.145E-01    0.142E-02
DAV:   5    -0.380683430435E+02   -0.12259E-05   -0.57539E-05 10864   0.718E-02    0.671E-03
DAV:   6    -0.380683432544E+02   -0.21094E-06   -0.66113E-06 13344   0.327E-02    0.405E-03
DAV:   7    -0.380683432791E+02   -0.24637E-07   -0.10771E-06 12768   0.256E-02    0.199E-03
DAV:   8    -0.380683433329E+02   -0.53825E-07   -0.35897E-07 11328   0.686E-03    0.610E-04
DAV:   9    -0.380683433568E+02   -0.23955E-07   -0.94166E-08 12400   0.255E-03    0.392E-04
DAV:  10    -0.380683433677E+02   -0.10849E-07   -0.19927E-08  6860   0.190E-03    0.178E-04
DAV:  11    -0.380683433774E+02   -0.97498E-08   -0.12076E-08  7092   0.208E-03
  49 F= -.38068343E+02 E0= -.38068070E+02  d E =-.529154E-03
 curvature:  -5.94 expect dE=-0.556E-02 dE for cont linesearch -0.104E-07
 trial: gam= 0.59520 g(F)=  0.658E-03 g(S)=  0.278E-03 ort = 0.108E-04 (trialstep = 0.146E+00)
 search vector abs. value=  0.243E-01
 bond charge predicted
       N       E                     dE             d eps       ncg     rms          rms(c)
DAV:   1    -0.380689599345E+02   -0.61657E-03   -0.87156E-02  9888   0.194E+00    0.216E-01
DAV:   2    -0.380686413842E+02    0.31855E-03   -0.62345E-03 11300   0.986E-01    0.106E-01
DAV:   3    -0.380685019724E+02    0.13941E-03   -0.57305E-04 13224   0.255E-01    0.539E-02
DAV:   4    -0.380684452653E+02    0.56707E-04   -0.12932E-04 12372   0.136E-01    0.109E-02
DAV:   5    -0.380684473159E+02   -0.20507E-05   -0.44851E-05 10688   0.696E-02    0.588E-03
DAV:   6    -0.380684475958E+02   -0.27986E-06   -0.55941E-06 12528   0.335E-02    0.383E-03
DAV:   7    -0.380684476384E+02   -0.42552E-07   -0.87945E-07 12564   0.224E-02    0.195E-03
DAV:   8    -0.380684477119E+02   -0.73510E-07   -0.34135E-07 12688   0.512E-03    0.514E-04
DAV:   9    -0.380684477279E+02   -0.16045E-07   -0.61379E-08 11788   0.390E-03    0.338E-04
DAV:  10    -0.380684477420E+02   -0.14057E-07   -0.14221E-08  6476   0.199E-03    0.134E-04
DAV:  11    -0.380684477493E+02   -0.72982E-08   -0.70559E-09  6416   0.984E-04
  50 F= -.38068448E+02 E0= -.38068171E+02  d E =-.104372E-03
 trial-energy change:   -0.000104  1 .order   -0.000117   -0.000138   -0.000096
 step:   0.4844(harm=  0.4844)  dis= 0.00597  next Energy=   -38.068571 (dE=-0.228E-03)
 bond charge predicted
       N       E                     dE             d eps       ncg     rms          rms(c)
DAV:   1    -0.380712749875E+02   -0.28272E-02   -0.46592E-01  9880   0.449E+00    0.498E-01
DAV:   2    -0.380695857744E+02    0.16892E-02   -0.33243E-02 11264   0.229E+00    0.245E-01
DAV:   3    -0.380688499683E+02    0.73581E-03   -0.30841E-03 13104   0.588E-01    0.124E-01
DAV:   4    -0.380685504723E+02    0.29950E-03   -0.68650E-04 12396   0.313E-01    0.252E-02
DAV:   5    -0.380685620367E+02   -0.11564E-04   -0.23953E-04 10676   0.160E-01    0.135E-02
DAV:   6    -0.380685635259E+02   -0.14893E-05   -0.29398E-05 12524   0.762E-02    0.880E-03
DAV:   7    -0.380685636562E+02   -0.13024E-06   -0.46034E-06 12468   0.518E-02    0.446E-03
DAV:   8    -0.380685639685E+02   -0.31238E-06   -0.18102E-06 12848   0.119E-02    0.118E-03
DAV:   9    -0.380685640316E+02   -0.63058E-07   -0.32708E-07 13268   0.900E-03    0.782E-04
DAV:  10    -0.380685640716E+02   -0.40049E-07   -0.82667E-08 11352   0.443E-03    0.312E-04
DAV:  11    -0.380685640917E+02   -0.20104E-07   -0.25489E-08  8084   0.190E-03    0.177E-04
DAV:  12    -0.380685640909E+02    0.85947E-09   -0.60643E-09  5744   0.796E-04
  51 F= -.38068564E+02 E0= -.38068278E+02  d E =-.220713E-03
 curvature:  -6.26 expect dE=-0.178E-01 dE for cont linesearch -0.103E-07
 trial: gam= 2.89225 g(F)=  0.220E-02 g(S)=  0.647E-03 ort =-0.632E-05 (trialstep = 0.252E-01)
 search vector abs. value=  0.206E+00
 bond charge predicted
       N       E                     dE             d eps       ncg     rms          rms(c)
DAV:   1    -0.380687429349E+02   -0.17884E-03   -0.22253E-02  9864   0.923E-01    0.986E-02
DAV:   2    -0.380686812951E+02    0.61640E-04   -0.12641E-03 11396   0.433E-01    0.503E-02
DAV:   3    -0.380686477403E+02    0.33555E-04   -0.12224E-04 12952   0.120E-01    0.253E-02
DAV:   4    -0.380686357072E+02    0.12033E-04   -0.31227E-05 12292   0.669E-02    0.521E-03
DAV:   5    -0.380686361974E+02   -0.49014E-06   -0.99230E-06 10652   0.366E-02    0.292E-03
DAV:   6    -0.380686362650E+02   -0.67650E-07   -0.14799E-06 12216   0.179E-02    0.186E-03
DAV:   7    -0.380686362796E+02   -0.14606E-07   -0.23925E-07 12296   0.109E-02    0.879E-04
DAV:   8    -0.380686362975E+02   -0.17872E-07   -0.84558E-08 11464   0.266E-03    0.259E-04
DAV:   9    -0.380686363041E+02   -0.65779E-08   -0.12740E-08  6088   0.147E-03
  52 F= -.38068636E+02 E0= -.38068352E+02  d E =-.722132E-04
 ZBRENT: can't locate minimum, use default step
 trial-energy change:   -0.000072  1 .order   -0.000069   -0.000071   -0.000066
 step:   0.1009(harm=  0.3467)  dis= 0.00371  next Energy=   -38.069055 (dE=-0.491E-03)
 bond charge predicted
       N       E                     dE             d eps       ncg     rms          rms(c)
DAV:   1    -0.380697672379E+02   -0.11309E-02   -0.20033E-01  9864   0.277E+00    0.295E-01
DAV:   2    -0.380692107763E+02    0.55646E-03   -0.11364E-02 11376   0.130E+00    0.151E-01
DAV:   3    -0.380689131085E+02    0.29767E-03   -0.11077E-03 12788   0.361E-01    0.758E-02
DAV:   4    -0.380688070054E+02    0.10610E-03   -0.28061E-04 12264   0.200E-01    0.156E-02
DAV:   5    -0.380688119364E+02   -0.49310E-05   -0.89795E-05 10636   0.109E-01    0.875E-03
DAV:   6    -0.380688126033E+02   -0.66685E-06   -0.13137E-05 12212   0.533E-02    0.558E-03
DAV:   7    -0.380688126848E+02   -0.81536E-07   -0.21193E-06 12284   0.326E-02    0.264E-03
DAV:   8    -0.380688128065E+02   -0.12171E-06   -0.76595E-07 12544   0.791E-03    0.780E-04
DAV:   9    -0.380688128398E+02   -0.33311E-07   -0.13235E-07 12676   0.448E-03    0.549E-04
DAV:  10    -0.380688128586E+02   -0.18795E-07   -0.33374E-08  8432   0.306E-03    0.220E-04
DAV:  11    -0.380688128704E+02   -0.11785E-07   -0.16175E-08  7704   0.137E-03    0.171E-04
DAV:  12    -0.380688128692E+02    0.11560E-08   -0.35152E-09  5428   0.618E-04
  53 F= -.38068813E+02 E0= -.38068532E+02  d E =-.248778E-03
 curvature:  -5.25 expect dE=-0.858E-02 dE for cont linesearch -0.100E-03
 ZBRENT: increasing intervall
 opt :   0.2522  next Energy=   -38.069016 (dE=-0.452E-03)
 bond charge predicted
       N       E                     dE             d eps       ncg     rms          rms(c)
DAV:   1    -0.380728032642E+02   -0.39904E-02   -0.80151E-01  9864   0.556E+00    0.590E-01
DAV:   2    -0.380706069450E+02    0.21963E-02   -0.45329E-02 11344   0.262E+00    0.302E-01
DAV:   3    -0.380694259815E+02    0.11810E-02   -0.44582E-03 12700   0.719E-01    0.151E-01
DAV:   4    -0.380690058896E+02    0.42009E-03   -0.11126E-03 12252   0.402E-01    0.310E-02
DAV:   5    -0.380690263328E+02   -0.20443E-04   -0.35885E-04 10620   0.218E-01    0.174E-02
DAV:   6    -0.380690290564E+02   -0.27236E-05   -0.52228E-05 12236   0.106E-01    0.111E-02
DAV:   7    -0.380690293282E+02   -0.27183E-06   -0.83460E-06 12324   0.651E-02    0.524E-03
DAV:   8    -0.380690297732E+02   -0.44502E-06   -0.30392E-06 12608   0.157E-02    0.155E-03
DAV:   9    -0.380690298793E+02   -0.10610E-06   -0.52777E-07 13332   0.919E-03    0.110E-03
DAV:  10    -0.380690299239E+02   -0.44603E-07   -0.14568E-07 13584   0.607E-03    0.446E-04
DAV:  11    -0.380690299529E+02   -0.29027E-07   -0.47561E-08  9128   0.239E-03    0.291E-04
DAV:  12    -0.380690299507E+02    0.22774E-08   -0.10095E-08  6072   0.942E-04
  54 F= -.38069030E+02 E0= -.38068757E+02  d E =-.465860E-03
 curvature: -10.65 expect dE=-0.152E-01 dE for cont linesearch -0.278E-04
 ZBRENT: increasing intervall
 opt :   0.5549  next Energy=   -38.068874 (dE=-0.310E-03)
 bond charge predicted
       N       E                     dE             d eps       ncg     rms          rms(c)
DAV:   1    -0.380836080296E+02   -0.14578E-01   -0.32074E+00  9860   0.112E+01    0.117E+00
DAV:   2    -0.380751125911E+02    0.84954E-02   -0.18037E-01 11324   0.526E+00    0.602E-01
DAV:   3    -0.380704465196E+02    0.46661E-02   -0.18039E-02 12656   0.144E+00    0.300E-01
DAV:   4    -0.380687822462E+02    0.16643E-02   -0.43445E-03 12128   0.831E-01    0.611E-02
DAV:   5    -0.380688671931E+02   -0.84947E-04   -0.14352E-03 10624   0.438E-01    0.345E-02
DAV:   6    -0.380688789163E+02   -0.11723E-04   -0.21654E-04 12220   0.213E-01    0.221E-02
DAV:   7    -0.380688799361E+02   -0.10198E-05   -0.33865E-05 12336   0.133E-01    0.103E-02
DAV:   8    -0.380688817175E+02   -0.17814E-05   -0.12714E-05 12716   0.311E-02    0.311E-03
DAV:   9    -0.380688820781E+02   -0.36064E-06   -0.20527E-06 13008   0.190E-02    0.221E-03
DAV:  10    -0.380688821970E+02   -0.11891E-06   -0.58633E-07 13760   0.121E-02    0.887E-04
DAV:  11    -0.380688822856E+02   -0.88543E-07   -0.19714E-07 11200   0.462E-03    0.607E-04
DAV:  12    -0.380688822805E+02    0.51114E-08   -0.47890E-08 10644   0.176E-03
  55 F= -.38068882E+02 E0= -.38068622E+02  d E =-.318190E-03
 curvature:  59.69 expect dE= 0.394E+00 dE for cont linesearch  0.768E-03
 ZBRENT: bracketing found
 ZBRENT: interpolating
 opt :   0.3462  next Energy=   -38.069064 (dE=-0.500E-03)
 bond charge predicted
       N       E                     dE             d eps       ncg     rms          rms(c)
DAV:   1    -0.380762125364E+02   -0.73303E-02   -0.15141E+00  9864   0.754E+00    0.807E-01
DAV:   2    -0.380720491396E+02    0.41634E-02   -0.84469E-02 11412   0.345E+00    0.413E-01
DAV:   3    -0.380697947323E+02    0.22544E-02   -0.78349E-03 12752   0.989E-01    0.209E-01
DAV:   4    -0.380690080289E+02    0.78670E-03   -0.21371E-03 12032   0.584E-01    0.429E-02
DAV:   5    -0.380690446721E+02   -0.36643E-04   -0.66168E-04 10704   0.340E-01    0.240E-02
DAV:   6    -0.380690523426E+02   -0.76705E-05   -0.12346E-04 12168   0.158E-01    0.153E-02
DAV:   7    -0.380690530020E+02   -0.65943E-06   -0.20053E-05 12168   0.989E-02    0.724E-03
DAV:   8    -0.380690538113E+02   -0.80936E-06   -0.71470E-06 12288   0.240E-02    0.223E-03
DAV:   9    -0.380690539330E+02   -0.12168E-06   -0.10350E-06 13376   0.102E-02    0.159E-03
DAV:  10    -0.380690539085E+02    0.24497E-07   -0.35589E-07 14020   0.741E-03    0.647E-04
DAV:  11    -0.380690539141E+02   -0.56079E-08   -0.97189E-08 10900   0.400E-03
  56 F= -.38069054E+02 E0= -.38068785E+02  d E =-.489823E-03
 curvature:  -2.68 expect dE=-0.618E-02 dE for cont linesearch -0.166E-07
 trial: gam= 0.80489 g(F)=  0.186E-02 g(S)=  0.445E-03 ort =-0.358E-04 (trialstep = 0.894E-01)
 search vector abs. value=  0.136E+00
 bond charge predicted
       N       E                     dE             d eps       ncg     rms          rms(c)
DAV:   1    -0.380700438233E+02   -0.98991E-03   -0.18030E-01  9860   0.256E+00    0.268E-01
DAV:   2    -0.380696047006E+02    0.43912E-03   -0.85926E-03 11444   0.113E+00    0.144E-01
DAV:   3    -0.380693070702E+02    0.29763E-03   -0.89374E-04 13180   0.334E-01    0.680E-02
DAV:   4    -0.380692257756E+02    0.81295E-04   -0.23878E-04 11724   0.185E-01    0.136E-02
DAV:   5    -0.380692309345E+02   -0.51589E-05   -0.75635E-05 10688   0.103E-01    0.833E-03
DAV:   6    -0.380692314264E+02   -0.49192E-06   -0.99188E-06 12220   0.470E-02    0.522E-03
DAV:   7    -0.380692315768E+02   -0.15035E-06   -0.20786E-06 13976   0.265E-02    0.196E-03
DAV:   8    -0.380692316492E+02   -0.72390E-07   -0.53566E-07 12708   0.804E-03    0.777E-04
DAV:   9    -0.380692316838E+02   -0.34620E-07   -0.17114E-07 12152   0.328E-03    0.605E-04
DAV:  10    -0.380692316911E+02   -0.73578E-08   -0.34891E-08  9124   0.238E-03
  57 F= -.38069232E+02 E0= -.38068958E+02  d E =-.177777E-03
 ZBRENT: can't locate minimum, use default step
 trial-energy change:   -0.000178  1 .order   -0.000181   -0.000203   -0.000159
 step:   0.3577(harm=  0.4124)  dis= 0.01044  next Energy=   -38.069523 (dE=-0.469E-03)
 bond charge predicted
       N       E                     dE             d eps       ncg     rms          rms(c)
DAV:   1    -0.380767146235E+02   -0.74829E-02   -0.16241E+00  9860   0.770E+00    0.801E-01
DAV:   2    -0.380728357295E+02    0.38789E-02   -0.77313E-02 11412   0.342E+00    0.431E-01
DAV:   3    -0.380701803782E+02    0.26554E-02   -0.81838E-03 12628   0.101E+00    0.203E-01
DAV:   4    -0.380694630843E+02    0.71729E-03   -0.22008E-03 11636   0.578E-01    0.404E-02
DAV:   5    -0.380695106906E+02   -0.47606E-04   -0.68606E-04 10744   0.323E-01    0.249E-02
DAV:   6    -0.380695161317E+02   -0.54411E-05   -0.10053E-04 12208   0.153E-01    0.157E-02
DAV:   7    -0.380695173767E+02   -0.12450E-05   -0.19935E-05 13556   0.864E-02    0.599E-03
DAV:   8    -0.380695180412E+02   -0.66450E-06   -0.55253E-06 12100   0.257E-02    0.233E-03
DAV:   9    -0.380695182740E+02   -0.23275E-06   -0.16616E-06 12816   0.888E-03    0.188E-03
DAV:  10    -0.380695182891E+02   -0.15096E-07   -0.36965E-07 14436   0.681E-03    0.739E-04
DAV:  11    -0.380695183577E+02   -0.68611E-07   -0.14974E-07 10940   0.410E-03    0.557E-04
DAV:  12    -0.380695183569E+02    0.77944E-09   -0.15909E-08  7632   0.153E-03
  58 F= -.38069518E+02 E0= -.38069227E+02  d E =-.464443E-03
 curvature: -11.97 expect dE=-0.396E-01 dE for cont linesearch -0.746E-05
 trial: gam= 1.29140 g(F)=  0.219E-02 g(S)=  0.112E-02 ort = 0.291E-03 (trialstep = 0.843E-01)
 search vector abs. value=  0.231E+00
 bond charge predicted
       N       E                     dE             d eps       ncg     rms          rms(c)
DAV:   1    -0.380707866922E+02   -0.12683E-02   -0.27710E-01  9856   0.303E+00    0.296E-01
DAV:   2    -0.380703000249E+02    0.48667E-03   -0.10002E-02 11412   0.115E+00    0.167E-01
DAV:   3    -0.380698632564E+02    0.43677E-03   -0.11068E-03 13276   0.390E-01    0.730E-02
DAV:   4    -0.380697796041E+02    0.83652E-04   -0.32837E-04 11004   0.212E-01    0.157E-02
DAV:   5    -0.380697868563E+02   -0.72522E-05   -0.96993E-05 10992   0.114E-01    0.102E-02
DAV:   6    -0.380697872852E+02   -0.42888E-06   -0.11984E-05 12016   0.559E-02    0.604E-03
DAV:   7    -0.380697875121E+02   -0.22694E-06   -0.30893E-06 14124   0.278E-02    0.204E-03
DAV:   8    -0.380697875817E+02   -0.69538E-07   -0.71854E-07 13200   0.916E-03    0.999E-04
DAV:   9    -0.380697876285E+02   -0.46822E-07   -0.26152E-07 12424   0.335E-03    0.764E-04
DAV:  10    -0.380697876285E+02    0.40018E-10   -0.54573E-08 10976   0.275E-03
  59 F= -.38069788E+02 E0= -.38069500E+02  d E =-.269272E-03
 trial-energy change:   -0.000269  1 .order   -0.000268   -0.000311   -0.000226
 step:   0.2731(harm=  0.3095)  dis= 0.01063  next Energy=   -38.070050 (dE=-0.532E-03)
 bond charge predicted
       N       E                     dE             d eps       ncg     rms          rms(c)
DAV:   1    -0.380750626555E+02   -0.52750E-02   -0.13914E+00  9856   0.679E+00    0.663E-01
DAV:   2    -0.380726558473E+02    0.24068E-02   -0.50112E-02 11416   0.259E+00    0.374E-01
DAV:   3    -0.380704709551E+02    0.21849E-02   -0.56346E-03 12828   0.881E-01    0.162E-01
DAV:   4    -0.380700616769E+02    0.40928E-03   -0.16803E-03 11036   0.490E-01    0.352E-02
DAV:   5    -0.380700984766E+02   -0.36800E-04   -0.49174E-04 11016   0.266E-01    0.229E-02
DAV:   6    -0.380701009637E+02   -0.24871E-05   -0.64547E-05 11964   0.132E-01    0.136E-02
DAV:   7    -0.380701021555E+02   -0.11918E-05   -0.16211E-05 14464   0.637E-02    0.450E-03
DAV:   8    -0.380701024898E+02   -0.33426E-06   -0.36934E-06 12908   0.208E-02    0.222E-03
DAV:   9    -0.380701026777E+02   -0.18790E-06   -0.13193E-06 13016   0.761E-03    0.170E-03
DAV:  10    -0.380701026660E+02    0.11629E-07   -0.29327E-07 14532   0.602E-03    0.655E-04
DAV:  11    -0.380701027164E+02   -0.50375E-07   -0.98247E-08 10400   0.269E-03    0.353E-04
DAV:  12    -0.380701027134E+02    0.30241E-08   -0.76519E-09  6604   0.109E-03
  60 F= -.38070103E+02 E0= -.38069821E+02  d E =-.584356E-03
 curvature:  -9.43 expect dE=-0.227E-01 dE for cont linesearch -0.152E-04
 ZBRENT: extrapolating
 opt :   0.3285  next Energy=   -38.070120 (dE=-0.601E-03)
 bond charge predicted
       N       E                     dE             d eps       ncg     rms          rms(c)
DAV:   1    -0.380705462523E+02   -0.44354E-03   -0.11984E-01  9856   0.199E+00    0.194E-01
DAV:   2    -0.380703415456E+02    0.20471E-03   -0.42763E-03 11392   0.746E-01    0.110E-01
DAV:   3    -0.380701519726E+02    0.18957E-03   -0.47073E-04 13340   0.256E-01    0.475E-02
DAV:   4    -0.380701168426E+02    0.35130E-04   -0.14002E-04 10936   0.139E-01    0.102E-02
DAV:   5    -0.380701199232E+02   -0.30806E-05   -0.41217E-05 11052   0.736E-02    0.669E-03
DAV:   6    -0.380701200920E+02   -0.16875E-06   -0.50033E-06 11956   0.361E-02    0.395E-03
DAV:   7    -0.380701201905E+02   -0.98532E-07   -0.13133E-06 14004   0.180E-02    0.132E-03
DAV:   8    -0.380701202228E+02   -0.32219E-07   -0.30844E-07 13248   0.599E-03    0.657E-04
DAV:   9    -0.380701202468E+02   -0.24010E-07   -0.11139E-07 11592   0.221E-03    0.497E-04
DAV:  10    -0.380701202476E+02   -0.81991E-09   -0.20690E-08  7524   0.180E-03
  61 F= -.38070120E+02 E0= -.38069841E+02  d E =-.601891E-03
 curvature: -10.51 expect dE=-0.396E-01 dE for cont linesearch -0.774E-08
 trial: gam= 1.47523 g(F)=  0.352E-02 g(S)=  0.257E-03 ort = 0.130E-04 (trialstep = 0.607E-01)
 search vector abs. value=  0.506E+00
 bond charge predicted
       N       E                     dE             d eps       ncg     rms          rms(c)
DAV:   1    -0.380715360177E+02   -0.14158E-02   -0.31009E-01  9856   0.322E+00    0.322E-01
DAV:   2    -0.380709366290E+02    0.59939E-03   -0.11414E-02 11456   0.125E+00    0.182E-01
DAV:   3    -0.380704130819E+02    0.52355E-03   -0.12963E-03 13028   0.421E-01    0.779E-02
DAV:   4    -0.380703190266E+02    0.94055E-04   -0.38389E-04 11216   0.227E-01    0.168E-02
DAV:   5    -0.380703270148E+02   -0.79883E-05   -0.11038E-04 11108   0.125E-01    0.109E-02
DAV:   6    -0.380703275632E+02   -0.54836E-06   -0.13911E-05 11896   0.600E-02    0.648E-03
DAV:   7    -0.380703278832E+02   -0.32004E-06   -0.37192E-06 14324   0.285E-02    0.220E-03
DAV:   8    -0.380703279515E+02   -0.68315E-07   -0.82849E-07 13116   0.101E-02    0.109E-03
DAV:   9    -0.380703280082E+02   -0.56675E-07   -0.34929E-07 13024   0.373E-03    0.868E-04
DAV:  10    -0.380703280063E+02    0.19591E-08   -0.70685E-08 12084   0.292E-03
  62 F= -.38070328E+02 E0= -.38070041E+02  d E =-.207759E-03
 trial-energy change:   -0.000208  1 .order   -0.000203   -0.000230   -0.000175
 step:   0.1455(harm=  0.2553)  dis= 0.00828  next Energy=   -38.070464 (dE=-0.344E-03)
 bond charge predicted
       N       E                     dE             d eps       ncg     rms          rms(c)
DAV:   1    -0.380728596031E+02   -0.25316E-02   -0.60435E-01  9856   0.450E+00    0.448E-01
DAV:   2    -0.380717027881E+02    0.11568E-02   -0.22191E-02 11440   0.175E+00    0.254E-01
DAV:   3    -0.380706855203E+02    0.10173E-02   -0.25408E-03 12860   0.590E-01    0.108E-01
DAV:   4    -0.380705043813E+02    0.18114E-03   -0.75218E-04 11168   0.320E-01    0.235E-02
DAV:   5    -0.380705200458E+02   -0.15664E-04   -0.21643E-04 11140   0.176E-01    0.152E-02
DAV:   6    -0.380705211455E+02   -0.10997E-05   -0.27703E-05 11880   0.857E-02    0.906E-03
DAV:   7    -0.380705217686E+02   -0.62310E-06   -0.73623E-06 14364   0.401E-02    0.308E-03
DAV:   8    -0.380705218955E+02   -0.12695E-06   -0.16299E-06 13088   0.142E-02    0.152E-03
DAV:   9    -0.380705219956E+02   -0.10011E-06   -0.68511E-07 13252   0.525E-03    0.121E-03
DAV:  10    -0.380705219895E+02    0.60750E-08   -0.14287E-07 13816   0.411E-03    0.445E-04
DAV:  11    -0.380705220196E+02   -0.30048E-07   -0.50433E-08  9700   0.182E-03    0.239E-04
DAV:  12    -0.380705220177E+02    0.18658E-08   -0.34854E-09  5828   0.773E-04
  63 F= -.38070522E+02 E0= -.38070223E+02  d E =-.401770E-03
[...]
DAV:   7    -0.381248780764E+02   -0.12451E-08   -0.10550E-07 10596   0.581E-03    0.335E-04
DAV:   8    -0.381248780762E+02    0.10823E-09   -0.40391E-08  7460   0.238E-03
 239 F= -.38124878E+02 E0= -.38124602E+02  d E =-.103009E-04
 curvature:  -2.41 expect dE=-0.148E-04 dE for cont linesearch -0.542E-06
 ZBRENT: increasing intervall
 opt :   1.7668  next Energy=   -38.124875 (dE=-0.687E-05)
 bond charge predicted
       N       E                     dE             d eps       ncg     rms          rms(c)
DAV:   1    -0.381248804197E+02   -0.23433E-05   -0.14284E-02 10080   0.697E-01    0.524E-02
DAV:   2    -0.381248842756E+02   -0.38559E-05   -0.49607E-04 11384   0.277E-01    0.297E-02
DAV:   3    -0.381248774405E+02    0.68351E-05   -0.72143E-05 12200   0.117E-01    0.150E-02
DAV:   4    -0.381248747884E+02    0.26521E-05   -0.16476E-05 12068   0.782E-02    0.370E-03
DAV:   5    -0.381248753205E+02   -0.53217E-06   -0.76085E-06 12796   0.334E-02    0.204E-03
DAV:   6    -0.381248754248E+02   -0.10425E-06   -0.15867E-06 11616   0.156E-02    0.118E-03
DAV:   7    -0.381248754376E+02   -0.12773E-07   -0.40000E-07 12980   0.112E-02    0.667E-04
DAV:   8    -0.381248754385E+02   -0.93587E-09   -0.13745E-07  9816   0.463E-03    0.286E-04
DAV:   9    -0.381248754385E+02    0.28194E-10   -0.65377E-08 10668   0.164E-03
 240 F= -.38124875E+02 E0= -.38124602E+02  d E =-.766307E-05
 curvature:  15.25 expect dE= 0.777E-03 dE for cont linesearch  0.237E-04
 ZBRENT: bracketing found
 ZBRENT: interpolating
 opt :   1.0686  next Energy=   -38.124879 (dE=-0.109E-04)
 bond charge predicted
       N       E                     dE             d eps       ncg     rms          rms(c)
DAV:   1    -0.381248812877E+02   -0.58492E-05   -0.74971E-03 10080   0.505E-01    0.380E-02
DAV:   2    -0.381248838964E+02   -0.26087E-05   -0.26248E-04 11364   0.198E-01    0.215E-02
DAV:   3    -0.381248798482E+02    0.40481E-05   -0.36518E-05 12180   0.841E-02    0.109E-02
DAV:   4    -0.381248783454E+02    0.15028E-05   -0.84338E-06 12064   0.545E-02    0.266E-03
DAV:   5    -0.381248785548E+02   -0.20934E-06   -0.37185E-06 12204   0.243E-02    0.147E-03
DAV:   6    -0.381248786144E+02   -0.59614E-07   -0.90891E-07 11408   0.118E-02    0.848E-04
DAV:   7    -0.381248786344E+02   -0.20009E-07   -0.22952E-07 12628   0.860E-03    0.490E-04
DAV:   8    -0.381248786429E+02   -0.84456E-08   -0.90244E-08  8776   0.336E-03
 241 F= -.38124879E+02 E0= -.38124603E+02  d E =-.108675E-04
 curvature:  -0.39 expect dE=-0.477E-05 dE for cont linesearch -0.848E-09
 trial: gam= 0.95937 g(F)=  0.961E-05 g(S)=  0.271E-05 ort = 0.448E-06 (trialstep = 0.261E+00)
 search vector abs. value=  0.973E-04
 bond charge predicted
       N       E                     dE             d eps       ncg     rms          rms(c)
DAV:   1    -0.381248811693E+02   -0.25349E-05   -0.10950E-03 10104   0.187E-01    0.146E-02
DAV:   2    -0.381248814465E+02   -0.27725E-06   -0.35899E-05 11244   0.646E-02    0.897E-03
DAV:   3    -0.381248804670E+02    0.97958E-06   -0.46408E-06 12644   0.331E-02    0.403E-03
DAV:   4    -0.381248802979E+02    0.16907E-06   -0.14351E-06 10928   0.211E-02    0.110E-03
DAV:   5    -0.381248803500E+02   -0.52113E-07   -0.62330E-07 12832   0.795E-03    0.652E-04
DAV:   6    -0.381248803571E+02   -0.70631E-08   -0.10548E-07 10244   0.530E-03    0.349E-04
DAV:   7    -0.381248803606E+02   -0.35325E-08   -0.23777E-08  6568   0.233E-03
 242 F= -.38124880E+02 E0= -.38124604E+02  d E =-.171775E-05
 trial-energy change:   -0.000002  1 .order   -0.000001   -0.000003    0.000002
 step:   0.2135(harm=  0.1705)  dis= 0.00019  next Energy=   -38.124881 (dE=-0.187E-05)
 bond charge predicted
       N       E                     dE             d eps       ncg     rms          rms(c)
DAV:   1    -0.381248806091E+02   -0.25202E-06   -0.36224E-05 10100   0.343E-02    0.266E-03
DAV:   2    -0.381248806409E+02   -0.31845E-07   -0.12018E-06 11308   0.122E-02    0.163E-03
DAV:   3    -0.381248806090E+02    0.31961E-07   -0.15609E-07 12304   0.634E-03    0.746E-04
DAV:   4    -0.381248806044E+02    0.45984E-08   -0.48064E-08  9516   0.414E-03
 243 F= -.38124881E+02 E0= -.38124605E+02  d E =-.196152E-05
 curvature:  -0.50 expect dE=-0.107E-04 dE for cont linesearch -0.349E-07
 trial: gam= 0.00000 g(F)=  0.195E-04 g(S)=  0.180E-05 ort =-0.259E-05 (trialstep = 0.252E+00)
 search vector abs. value=  0.213E-04
 bond charge predicted
       N       E                     dE             d eps       ncg     rms          rms(c)
DAV:   1    -0.381248787472E+02    0.18618E-05   -0.30508E-04  9856   0.103E-01    0.771E-03
DAV:   2    -0.381248799196E+02   -0.11724E-05   -0.21184E-05 11424   0.455E-02    0.518E-03
DAV:   3    -0.381248798031E+02    0.11647E-06   -0.17976E-06 11656   0.137E-02    0.313E-03
DAV:   4    -0.381248797393E+02    0.63850E-07   -0.34447E-07 11496   0.106E-02    0.106E-03
DAV:   5    -0.381248797429E+02   -0.36052E-08   -0.10210E-07 11540   0.581E-03    0.344E-04
DAV:   6    -0.381248797420E+02    0.87857E-09   -0.25911E-08  7476   0.180E-03
 244 F= -.38124880E+02 E0= -.38124607E+02  d E =0.862366E-06
 trial-energy change:    0.000001  1 .order    0.000001   -0.000005    0.000007
 step:   0.1100(harm=  0.1059)  dis= 0.00006  next Energy=   -38.124882 (dE=-0.118E-05)
 bond charge predicted
       N       E                     dE             d eps       ncg     rms          rms(c)
DAV:   1    -0.381248816310E+02   -0.18881E-05   -0.96364E-05  9856   0.576E-02    0.433E-03
DAV:   2    -0.381248819373E+02   -0.30631E-06   -0.66262E-06 11408   0.249E-02    0.290E-03
DAV:   3    -0.381248818265E+02    0.11076E-06   -0.56364E-07 11648   0.742E-03    0.175E-03
DAV:   4    -0.381248817694E+02    0.57163E-07   -0.10574E-07 11484   0.572E-03    0.590E-04
DAV:   5    -0.381248817674E+02    0.20082E-08   -0.28794E-08  8104   0.304E-03
 245 F= -.38124882E+02 E0= -.38124607E+02  d E =-.116297E-05
 curvature:  -0.05 expect dE=-0.493E-06 dE for cont linesearch -0.117E-08
 trial: gam= 0.47025 g(F)=  0.731E-05 g(S)=  0.200E-05 ort =-0.684E-06 (trialstep = 0.223E+00)
 search vector abs. value=  0.134E-04
 bond charge predicted
       N       E                     dE             d eps       ncg     rms          rms(c)
DAV:   1    -0.381248835529E+02   -0.17835E-05   -0.12725E-04 10248   0.630E-02    0.453E-03
DAV:   2    -0.381248836133E+02   -0.60454E-07   -0.35877E-06 12016   0.212E-02    0.267E-03
DAV:   3    -0.381248835147E+02    0.98644E-07   -0.52142E-07 12400   0.108E-02    0.121E-03
DAV:   4    -0.381248835030E+02    0.11672E-07   -0.10962E-07 11520   0.696E-03    0.330E-04
DAV:   5    -0.381248835079E+02   -0.48922E-08   -0.51512E-08 10280   0.192E-03
 246 F= -.38124884E+02 E0= -.38124609E+02  d E =-.174057E-05
 trial-energy change:   -0.000002  1 .order   -0.000002   -0.000002   -0.000001
 step:   0.8150(harm=  0.8150)  dis= 0.00030  next Energy=   -38.124885 (dE=-0.366E-05)
 bond charge predicted
       N       E                     dE             d eps       ncg     rms          rms(c)
DAV:   1    -0.381248860258E+02   -0.25227E-05   -0.89636E-04 10252   0.167E-01    0.120E-02
DAV:   2    -0.381248864816E+02   -0.45584E-06   -0.25186E-05 12068   0.537E-02    0.711E-03
DAV:   3    -0.381248857562E+02    0.72545E-06   -0.34936E-06 12416   0.268E-02    0.308E-03
DAV:   4    -0.381248856725E+02    0.83692E-07   -0.72902E-07 11612   0.177E-02    0.844E-04
DAV:   5    -0.381248857020E+02   -0.29536E-07   -0.36153E-07 12496   0.506E-03    0.583E-04
DAV:   6    -0.381248857027E+02   -0.70759E-09   -0.24157E-08  7400   0.268E-03
 247 F= -.38124886E+02 E0= -.38124612E+02  d E =-.393537E-05
 curvature:  -0.61 expect dE=-0.206E-05 dE for cont linesearch -0.145E-07
 trial: gam= 0.07580 g(F)=  0.267E-05 g(S)=  0.727E-06 ort = 0.566E-06 (trialstep = 0.342E+00)
 search vector abs. value=  0.356E-05
 bond charge predicted
       N       E                     dE             d eps       ncg     rms          rms(c)
DAV:   1    -0.381248855672E+02    0.13477E-06   -0.84253E-05 10076   0.529E-02    0.454E-03
DAV:   2    -0.381248856589E+02   -0.91655E-07   -0.47056E-06 11060   0.202E-02    0.303E-03
DAV:   3    -0.381248855064E+02    0.15245E-06   -0.54120E-07 11964   0.104E-02    0.147E-03
DAV:   4    -0.381248854905E+02    0.15916E-07   -0.13730E-07 11388   0.769E-03    0.528E-04
DAV:   5    -0.381248854971E+02   -0.65374E-08   -0.46332E-08  9520   0.296E-03
 248 F= -.38124885E+02 E0= -.38124611E+02  d E =0.205650E-06
 trial-energy change:    0.000000  1 .order    0.000000   -0.000001    0.000001
 step:   0.1408(harm=  0.1518)  dis= 0.00002  next Energy=   -38.124886 (dE=-0.238E-06)
 bond charge predicted
       N       E                     dE             d eps       ncg     rms          rms(c)
DAV:   1    -0.381248859059E+02   -0.41537E-06   -0.28971E-05 10084   0.312E-02    0.264E-03
DAV:   2    -0.381248859817E+02   -0.75795E-07   -0.16112E-06 11108   0.125E-02    0.178E-03
DAV:   3    -0.381248859543E+02    0.27435E-07   -0.18329E-07 11868   0.597E-03    0.849E-04
DAV:   4    -0.381248859482E+02    0.60845E-08   -0.47171E-08  9512   0.445E-03
 249 F= -.38124886E+02 E0= -.38124612E+02  d E =-.245458E-06
 curvature:  -0.08 expect dE=-0.239E-06 dE for cont linesearch -0.130E-08
 trial: gam= 0.84390 g(F)=  0.238E-05 g(S)=  0.682E-06 ort = 0.243E-06 (trialstep = 0.179E+00)
 search vector abs. value=  0.600E-05
 bond charge predicted
       N       E                     dE             d eps       ncg     rms          rms(c)
DAV:   1    -0.381248865294E+02   -0.57514E-06   -0.33023E-05 10324   0.391E-02    0.407E-03
DAV:   2    -0.381248864257E+02    0.10368E-06   -0.27364E-06 11556   0.203E-02    0.185E-03
DAV:   3    -0.381248864214E+02    0.43574E-08   -0.26651E-07 11992   0.605E-03    0.952E-04
DAV:   4    -0.381248864177E+02    0.36453E-08   -0.52281E-08 10632   0.489E-03
 250 F= -.38124886E+02 E0= -.38124612E+02  d E =-.469542E-06
 trial-energy change:   -0.000000  1 .order   -0.000000   -0.000001   -0.000000
 step:   0.4978(harm=  0.4978)  dis= 0.00009  next Energy=   -38.124887 (dE=-0.812E-06)
 bond charge predicted
       N       E                     dE             d eps       ncg     rms          rms(c)
DAV:   1    -0.381248872835E+02   -0.86215E-06   -0.10597E-04 10324   0.706E-02    0.735E-03
DAV:   2    -0.381248869997E+02    0.28384E-06   -0.88358E-06 11580   0.373E-02    0.333E-03
DAV:   3    -0.381248869464E+02    0.53233E-07   -0.90477E-07 11952   0.123E-02    0.173E-03
DAV:   4    -0.381248869160E+02    0.30446E-07   -0.20435E-07 13364   0.972E-03    0.401E-04
DAV:   5    -0.381248869266E+02   -0.10587E-07   -0.75925E-08 11368   0.407E-03    0.193E-04
DAV:   6    -0.381248869290E+02   -0.24211E-08   -0.20618E-08  6504   0.127E-03
 251 F= -.38124887E+02 E0= -.38124613E+02  d E =-.980825E-06
 curvature:  -0.46 expect dE=-0.453E-06 dE for cont linesearch -0.582E-07
 trial: gam= 0.04161 g(F)=  0.838E-06 g(S)=  0.151E-06 ort = 0.874E-06 (trialstep = 0.242E+00)
 search vector abs. value=  0.107E-05
 bond charge predicted
       N       E                     dE             d eps       ncg     rms          rms(c)
DAV:   1    -0.381248870969E+02   -0.17030E-06   -0.11168E-05 10216   0.195E-02    0.133E-03
DAV:   2    -0.381248871241E+02   -0.27261E-07   -0.45354E-07 11224   0.702E-03    0.861E-04
DAV:   3    -0.381248871201E+02    0.40272E-08   -0.51615E-08 10660   0.344E-03
 252 F= -.38124887E+02 E0= -.38124613E+02  d E =-.191118E-06
 trial-energy change:   -0.000000  1 .order   -0.000000   -0.000000   -0.000000
 step:   0.4988(harm=  0.4988)  dis= 0.00006  next Energy=   -38.124887 (dE=-0.256E-06)
 bond charge predicted
       N       E                     dE             d eps       ncg     rms          rms(c)
DAV:   1    -0.381248871560E+02   -0.31844E-07   -0.12462E-05 10200   0.204E-02    0.143E-03
DAV:   2    -0.381248871844E+02   -0.28404E-07   -0.50445E-07 11328   0.582E-03    0.932E-04
DAV:   3    -0.381248871799E+02    0.45293E-08   -0.39010E-08 10716   0.220E-03
 253 F= -.38124887E+02 E0= -.38124614E+02  d E =-.250863E-06
 curvature:  -0.26 expect dE=-0.137E-05 dE for cont linesearch -0.402E-09
 trial: gam= 5.39909 g(F)=  0.442E-05 g(S)=  0.832E-06 ort =-0.406E-07 (trialstep = 0.873E-02)
 search vector abs. value=  0.361E-04
 bond charge predicted
       N       E                     dE             d eps       ncg     rms          rms(c)
DAV:   1    -0.381248872211E+02   -0.36678E-07   -0.45185E-07 10272   0.414E-03    0.372E-04
DAV:   2    -0.381248872194E+02    0.16989E-08   -0.15984E-08  5336   0.185E-03
 254 F= -.38124887E+02 E0= -.38124614E+02  d E =-.395084E-07
 ZBRENT: can't locate minimum, use default step
 trial-energy change:   -0.000000  1 .order   -0.000000   -0.000000   -0.000000
 step:   0.0349(harm=  0.1168)  dis= 0.00002  next Energy=   -38.124887 (dE=-0.294E-06)
 bond charge predicted
       N       E                     dE             d eps       ncg     rms          rms(c)
DAV:   1    -0.381248873431E+02   -0.12200E-06   -0.39745E-06 10220   0.117E-02    0.994E-04
DAV:   2    -0.381248873438E+02   -0.71759E-09   -0.14551E-07 12832   0.439E-03    0.592E-04
DAV:   3    -0.381248873353E+02    0.85402E-08   -0.17329E-08  6664   0.210E-03
 255 F= -.38124887E+02 E0= -.38124614E+02  d E =-.155389E-06
 curvature:  -0.18 expect dE=-0.962E-06 dE for cont linesearch -0.107E-06
 ZBRENT: increasing intervall
 opt :   0.0873  next Energy=   -38.124888 (dE=-0.399E-06)
 bond charge predicted
       N       E                     dE             d eps       ncg     rms          rms(c)
DAV:   1    -0.381248875659E+02   -0.22215E-06   -0.15645E-05 10212   0.229E-02    0.185E-03
DAV:   2    -0.381248875745E+02   -0.85174E-08   -0.55499E-07 12436   0.762E-03    0.109E-03
DAV:   3    -0.381248875523E+02    0.22134E-07   -0.60706E-08 11528   0.310E-03    0.494E-04
DAV:   4    -0.381248875466E+02    0.56925E-08   -0.10841E-08  5488   0.211E-03
 256 F= -.38124888E+02 E0= -.38124614E+02  d E =-.366770E-06
 curvature:  -0.41 expect dE=-0.206E-05 dE for cont linesearch -0.175E-06
 ZBRENT: increasing intervall
 opt :   0.1921  next Energy=   -38.124888 (dE=-0.705E-06)
 bond charge predicted
       N       E                     dE             d eps       ncg     rms          rms(c)
DAV:   1    -0.381248879420E+02   -0.38965E-06   -0.62490E-05 10216   0.463E-02    0.368E-03
DAV:   2    -0.381248879733E+02   -0.31362E-07   -0.22316E-06 11788   0.174E-02    0.218E-03
DAV:   3    -0.381248879030E+02    0.70339E-07   -0.30077E-07 12056   0.932E-03    0.101E-03
DAV:   4    -0.381248878860E+02    0.17022E-07   -0.81392E-08 10832   0.628E-03    0.187E-04
DAV:   5    -0.381248878897E+02   -0.37398E-08   -0.33329E-08  7264   0.175E-03
 257 F= -.38124888E+02 E0= -.38124615E+02  d E =-.709852E-06
 curvature:  -0.79 expect dE=-0.372E-05 dE for cont linesearch -0.134E-06
 ZBRENT: increasing intervall
 opt :   0.4017  next Energy=   -38.124888 (dE=-0.922E-06)
 bond charge predicted
       N       E                     dE             d eps       ncg     rms          rms(c)
DAV:   1    -0.381248884281E+02   -0.54217E-06   -0.25073E-04 10212   0.924E-02    0.737E-03
DAV:   2    -0.381248885493E+02   -0.12114E-06   -0.89760E-06 11868   0.336E-02    0.437E-03
DAV:   3    -0.381248882781E+02    0.27121E-06   -0.11334E-06 11952   0.171E-02    0.199E-03
DAV:   4    -0.381248882191E+02    0.58963E-07   -0.30568E-07 11212   0.120E-02    0.372E-04
DAV:   5    -0.381248882336E+02   -0.14534E-07   -0.13842E-07 12492   0.359E-03    0.288E-04
DAV:   6    -0.381248882350E+02   -0.13479E-08   -0.13068E-08  6256   0.164E-03
 258 F= -.38124888E+02 E0= -.38124616E+02  d E =-.105513E-05
 curvature:  -1.25 expect dE=-0.634E-05 dE for cont linesearch -0.645E-08
 trial: gam= 0.17082 g(F)=  0.434E-05 g(S)=  0.739E-06 ort = 0.431E-06 (trialstep = 0.873E-01)
 search vector abs. value=  0.627E-05
 bond charge predicted
       N       E                     dE             d eps       ncg     rms          rms(c)
DAV:   1    -0.381248885125E+02   -0.27890E-06   -0.96061E-06 10076   0.175E-02    0.151E-03
DAV:   2    -0.381248885146E+02   -0.20864E-08   -0.53482E-07 11036   0.590E-03    0.105E-03
DAV:   3    -0.381248884882E+02    0.26462E-07   -0.57346E-08 11816   0.242E-03    0.516E-04
DAV:   4    -0.381248884855E+02    0.26512E-08   -0.11484E-08  6120   0.182E-03
 259 F= -.38124888E+02 E0= -.38124615E+02  d E =-.250529E-06
 trial-energy change:   -0.000000  1 .order   -0.000000   -0.000000   -0.000000
 step:   0.1141(harm=  0.1141)  dis= 0.00003  next Energy=   -38.124889 (dE=-0.294E-06)
 bond charge predicted
       N       E                     dE             d eps       ncg     rms          rms(c)
DAV:   1    -0.381248884995E+02   -0.11300E-07   -0.88249E-07 10072   0.557E-03    0.477E-04
DAV:   2    -0.381248884978E+02    0.16425E-08   -0.58396E-08 10248   0.249E-03
 260 F= -.38124888E+02 E0= -.38124615E+02  d E =-.262838E-06
 curvature:  -0.07 expect dE=-0.165E-06 dE for cont linesearch -0.996E-11
 trial: gam= 0.48585 g(F)=  0.186E-05 g(S)=  0.509E-06 ort = 0.300E-07 (trialstep = 0.927E-01)
 search vector abs. value=  0.388E-05
 bond charge predicted
       N       E                     dE             d eps       ncg     rms          rms(c)
DAV:   1    -0.381248887001E+02   -0.20059E-06   -0.57757E-06 10352   0.161E-02    0.172E-03
DAV:   2    -0.381248886745E+02    0.25561E-07   -0.46356E-07 11664   0.951E-03    0.828E-04
DAV:   3    -0.381248886797E+02   -0.51978E-08   -0.59202E-08  9468   0.334E-03
 261 F= -.38124889E+02 E0= -.38124616E+02  d E =-.181873E-06
 ZBRENT: can't locate minimum, use default step
 trial-energy change:   -0.000000  1 .order   -0.000000   -0.000000   -0.000000
 step:   0.3708(harm=  0.5531)  dis= 0.00005  next Energy=   -38.124889 (dE=-0.659E-06)
 bond charge predicted
       N       E                     dE             d eps       ncg     rms          rms(c)
DAV:   1    -0.381248892621E+02   -0.58757E-06   -0.52028E-05 10344   0.476E-02    0.505E-03
DAV:   2    -0.381248890994E+02    0.16269E-06   -0.40136E-06 11648   0.255E-02    0.237E-03
DAV:   3    -0.381248890813E+02    0.18061E-07   -0.49085E-07 11860   0.891E-03    0.121E-03
DAV:   4    -0.381248890704E+02    0.10887E-07   -0.10223E-07 11932   0.664E-03    0.325E-04
DAV:   5    -0.381248890781E+02   -0.77107E-08   -0.38472E-08  8964   0.257E-03
 262 F= -.38124889E+02 E0= -.38124616E+02  d E =-.580317E-06
 curvature:  -0.38 expect dE=-0.343E-06 dE for cont linesearch -0.719E-07
 trial: gam=-0.10596 g(F)=  0.861E-06 g(S)=  0.445E-07 ort = 0.858E-06 (trialstep = 0.148E+00)
 search vector abs. value=  0.767E-06
 bond charge predicted
       N       E                     dE             d eps       ncg     rms          rms(c)
DAV:   1    -0.381248891005E+02   -0.30092E-07   -0.39558E-06  9856   0.987E-03    0.724E-04
DAV:   2    -0.381248891257E+02   -0.25158E-07   -0.21449E-07 10844   0.340E-03    0.568E-04
DAV:   3    -0.381248891267E+02   -0.10596E-08   -0.12930E-08  7552   0.976E-04
 263 F= -.38124889E+02 E0= -.38124616E+02  d E =-.485988E-07
 trial-energy change:   -0.000000  1 .order   -0.000000   -0.000000    0.000000
 step:   0.1069(harm=  0.1069)  dis= 0.00001  next Energy=   -38.124889 (dE=-0.435E-07)
 bond charge predicted
       N       E                     dE             d eps       ncg     rms          rms(c)
DAV:   1    -0.381248891332E+02   -0.75188E-08   -0.33846E-07  9900   0.315E-03    0.198E-04
DAV:   2    -0.381248891314E+02    0.17899E-08   -0.22874E-08  7828   0.140E-03
 264 F= -.38124889E+02 E0= -.38124616E+02  d E =-.532682E-07
 curvature:  -0.05 expect dE=-0.250E-07 dE for cont linesearch -0.192E-09
 trial: gam= 0.48817 g(F)=  0.386E-06 g(S)=  0.112E-06 ort =-0.541E-07 (trialstep = 0.140E+00)
 search vector abs. value=  0.627E-06
 reached required accuracy - stopping structural energy minimisation
 writing wavefunctions
Thu Jan  6 01:28:12 CST 2022
