Wed Jan  5 23:33:23 CST 2022
 running on   48 total cores
 distrk:  each k-point on   48 cores,    1 groups
 distr:  one band on   24 cores,    2 groups
 using from now: INCAR     
 vasp.5.3.5 31Mar14 (build Jan 11 2016 19:50:55) complex                        
  
 POSCAR found type information on POSCAR  Zn Ga N  O 
 POSCAR found :  4 types and       8 ions
 scaLAPACK will be used

 ----------------------------------------------------------------------------- 
|                                                                             |
|           W    W    AA    RRRRR   N    N  II  N    N   GGGG   !!!           |
|           W    W   A  A   R    R  NN   N  II  NN   N  G    G  !!!           |
|           W    W  A    A  R    R  N N  N  II  N N  N  G       !!!           |
|           W WW W  AAAAAA  RRRRR   N  N N  II  N  N N  G  GGG   !            |
|           WW  WW  A    A  R   R   N   NN  II  N   NN  G    G                |
|           W    W  A    A  R    R  N    N  II  N    N   GGGG   !!!           |
|                                                                             |
|      For optimal performance we recommend to set                            |
|        NCORE= 4 - approx SQRT( number of cores)                             |
|      NCORE specifies how many cores store one orbital (NPAR=cpu/NCORE).     |
|      This setting can  greatly improve the performance of VASP for DFT.     |
|      The default, NPAR=number of cores might be grossly inefficient         |
|      on modern multi-core architectures or massively parallel machines.     |
|      Do your own testing !!!!                                               |
|      Unfortunately you need to use the default for GW and RPA calculations. |
|      (for HF NCORE is supported but not extensively tested yet)             |
|                                                                             |
 ----------------------------------------------------------------------------- 

 LDA part: xc-table for Pade appr. of Perdew
 POSCAR, INCAR and KPOINTS ok, starting setup
 WARNING: small aliasing (wrap around) errors must be expected
 FFT: planning ...
 WAVECAR not read
 entering main loop
       N       E                     dE             d eps       ncg     rms          rms(c)
DAV:   1     0.906791142221E+03    0.90679E+03   -0.42346E+04 10300   0.339E+03
DAV:   2     0.140459860140E+03   -0.76633E+03   -0.73530E+03  9904   0.789E+02
DAV:   3    -0.343833032076E+02   -0.17484E+03   -0.17011E+03 11148   0.270E+02
DAV:   4    -0.492577918358E+02   -0.14874E+02   -0.14712E+02 12468   0.807E+01
DAV:   5    -0.497162952344E+02   -0.45850E+00   -0.45665E+00 12368   0.141E+01    0.178E+01
DAV:   6    -0.410584466586E+02    0.86578E+01   -0.23821E+01 18800   0.865E+01    0.832E+00
DAV:   7    -0.418324766873E+02   -0.77403E+00   -0.10078E+01 10684   0.213E+01    0.584E+00
DAV:   8    -0.417383695819E+02    0.94107E-01   -0.14711E+00 16016   0.138E+01    0.261E+00
DAV:   9    -0.416842866670E+02    0.54083E-01   -0.25440E-01 13656   0.705E+00    0.108E+00
DAV:  10    -0.416730148143E+02    0.11272E-01   -0.86024E-02 14072   0.237E+00    0.454E-01
DAV:  11    -0.416736764269E+02   -0.66161E-03   -0.16856E-02 12600   0.111E+00    0.156E-01
DAV:  12    -0.416739144086E+02   -0.23798E-03   -0.27779E-03 14452   0.658E-01    0.681E-02
DAV:  13    -0.416740449731E+02   -0.13056E-03   -0.69549E-04 10836   0.281E-01    0.437E-02
DAV:  14    -0.416740668542E+02   -0.21881E-04   -0.97223E-05 12392   0.866E-02    0.256E-02
DAV:  15    -0.416740825623E+02   -0.15708E-04   -0.26216E-05 10856   0.690E-02    0.140E-02
DAV:  16    -0.416740842640E+02   -0.17017E-05   -0.13968E-05 13968   0.462E-02    0.278E-03
DAV:  17    -0.416740845303E+02   -0.26637E-06   -0.31303E-06 12904   0.134E-02    0.192E-03
DAV:  18    -0.416740845259E+02    0.44274E-08   -0.60259E-07 11992   0.575E-03    0.996E-04
DAV:  19    -0.416740845246E+02    0.12842E-08   -0.15894E-07 12104   0.527E-03    0.475E-04
DAV:  20    -0.416740844904E+02    0.34216E-07   -0.55091E-08 11568   0.212E-03    0.359E-04
DAV:  21    -0.416740844876E+02    0.28513E-08   -0.44299E-09  6988   0.104E-03
   1 F= -.41674084E+02 E0= -.41674083E+02  d E =-.416741E+02
 curvature:   0.00 expect dE= 0.000E+00 dE for cont linesearch  0.000E+00
 trial: gam= 0.00000 g(F)=  0.185E-04 g(S)=  0.452E-02 ort = 0.000E+00 (trialstep = 0.100E+01)
 search vector abs. value=  0.454E-02
 bond charge predicted
       N       E                     dE             d eps       ncg     rms          rms(c)
DAV:   1    -0.417073481471E+02   -0.33264E-01   -0.58987E-01 13212   0.111E+01    0.128E+00
DAV:   2    -0.416820990324E+02    0.25249E-01   -0.11686E-01 12860   0.596E+00    0.565E-01
DAV:   3    -0.416776808061E+02    0.44182E-02   -0.95493E-03 15336   0.153E+00    0.262E-01
DAV:   4    -0.416762635318E+02    0.14173E-02   -0.19657E-03 15848   0.794E-01    0.670E-02
DAV:   5    -0.416762574675E+02    0.60643E-05   -0.99242E-04 10692   0.306E-01    0.328E-02
DAV:   6    -0.416762616817E+02   -0.42141E-05   -0.12085E-04 13064   0.888E-02    0.218E-02
DAV:   7    -0.416762607125E+02    0.96918E-06   -0.13363E-05 13308   0.560E-02    0.146E-02
DAV:   8    -0.416762620216E+02   -0.13091E-05   -0.56915E-06 16328   0.367E-02    0.413E-03
DAV:   9    -0.416762618523E+02    0.16931E-06   -0.26541E-06 13184   0.247E-02    0.171E-03
DAV:  10    -0.416762618594E+02   -0.71113E-08   -0.72769E-07 11672   0.580E-03    0.106E-03
DAV:  11    -0.416762619011E+02   -0.41708E-07   -0.76166E-08 12408   0.335E-03    0.222E-04
DAV:  12    -0.416762619207E+02   -0.19587E-07   -0.29386E-08  9500   0.190E-03    0.239E-04
DAV:  13    -0.416762619271E+02   -0.63883E-08   -0.65399E-09  6008   0.155E-03
   2 F= -.41676262E+02 E0= -.41676261E+02  d E =-.217744E-02
 trial-energy change:   -0.002177  1 .order   -0.002194   -0.004541    0.000152
 step:   0.9669(harm=  0.9676)  dis= 0.00028  next Energy=   -41.676264 (dE=-0.218E-02)
 bond charge predicted
       N       E                     dE             d eps       ncg     rms          rms(c)
DAV:   1    -0.416762979190E+02   -0.35998E-04   -0.64180E-04 13252   0.364E-01    0.425E-02
DAV:   2    -0.416762702848E+02    0.27634E-04   -0.12832E-04 12648   0.199E-01    0.186E-02
DAV:   3    -0.416762658701E+02    0.44147E-05   -0.10486E-05 15016   0.512E-02    0.862E-03
DAV:   4    -0.416762645700E+02    0.13001E-05   -0.21761E-06 15744   0.268E-02    0.226E-03
DAV:   5    -0.416762646218E+02   -0.51791E-07   -0.10892E-06 10704   0.102E-02    0.104E-03
DAV:   6    -0.416762646098E+02    0.11992E-07   -0.13710E-07 12648   0.304E-03    0.723E-04
DAV:   7    -0.416762645961E+02    0.13720E-07   -0.91381E-09  6064   0.189E-03    0.484E-04
DAV:   8    -0.416762645647E+02    0.31434E-07   -0.83006E-09  5904   0.154E-03    0.190E-04
DAV:   9    -0.416762645651E+02   -0.46157E-09   -0.68536E-09  5604   0.138E-03
   3 F= -.41676265E+02 E0= -.41676263E+02  d E =-.218008E-02
 curvature:  -0.48 expect dE=-0.985E-03 dE for cont linesearch -0.394E-10
 trial: gam= 0.44864 g(F)=  0.461E-03 g(S)=  0.158E-02 ort = 0.609E-06 (trialstep = 0.993E+00)
 search vector abs. value=  0.295E-02
 bond charge predicted
       N       E                     dE             d eps       ncg     rms          rms(c)
DAV:   1    -0.416824143946E+02   -0.61498E-02   -0.28059E-01 10060   0.335E+00    0.545E-01
DAV:   2    -0.416796653432E+02    0.27491E-02   -0.13416E-02 12128   0.164E+00    0.328E-01
DAV:   3    -0.416779031457E+02    0.17622E-02   -0.23454E-03 14640   0.783E-01    0.929E-02
DAV:   4    -0.416778353326E+02    0.67813E-04   -0.87762E-04 10708   0.329E-01    0.204E-02
DAV:   5    -0.416778433406E+02   -0.80080E-05   -0.15711E-04 12480   0.146E-01    0.129E-02
DAV:   6    -0.416778439701E+02   -0.62947E-06   -0.22175E-05 11144   0.632E-02    0.813E-03
DAV:   7    -0.416778437996E+02    0.17049E-06   -0.53154E-06 14052   0.471E-02    0.229E-03
DAV:   8    -0.416778438115E+02   -0.11840E-07   -0.14071E-06 12096   0.158E-02    0.157E-03
DAV:   9    -0.416778438060E+02    0.54647E-08   -0.42318E-07 12848   0.613E-03    0.130E-03
DAV:  10    -0.416778437679E+02    0.38111E-07   -0.10330E-07 13180   0.442E-03    0.331E-04
DAV:  11    -0.416778437544E+02    0.13451E-07   -0.22253E-08  8464   0.177E-03    0.142E-04
DAV:  12    -0.416778437520E+02    0.24197E-08   -0.32285E-09  6032   0.698E-04
   4 F= -.41677844E+02 E0= -.41677842E+02  d E =-.157919E-02
 trial-energy change:   -0.001579  1 .order   -0.001583   -0.002024   -0.001141
 step:   2.3548(harm=  2.2765)  dis= 0.00709  next Energy=   -41.678616 (dE=-0.235E-02)
 bond charge predicted
       N       E                     dE             d eps       ncg     rms          rms(c)
DAV:   1    -0.416871641247E+02   -0.93204E-02   -0.52615E-01 10060   0.459E+00    0.747E-01
DAV:   2    -0.416819914698E+02    0.51727E-02   -0.25330E-02 12096   0.225E+00    0.449E-01
DAV:   3    -0.416786938996E+02    0.32976E-02   -0.44025E-03 14864   0.107E+00    0.128E-01
DAV:   4    -0.416785590503E+02    0.13485E-03   -0.16271E-03 10708   0.450E-01    0.278E-02
DAV:   5    -0.416785748962E+02   -0.15846E-04   -0.29894E-04 12524   0.198E-01    0.175E-02
DAV:   6    -0.416785760803E+02   -0.11841E-05   -0.41525E-05 11228   0.889E-02    0.112E-02
DAV:   7    -0.416785758531E+02    0.22728E-06   -0.10166E-05 14028   0.650E-02    0.323E-03
DAV:   8    -0.416785758761E+02   -0.23037E-07   -0.26757E-06 12088   0.217E-02    0.217E-03
DAV:   9    -0.416785758812E+02   -0.50727E-08   -0.86941E-07 12896   0.902E-03    0.185E-03
DAV:  10    -0.416785758191E+02    0.62094E-07   -0.20665E-07 13612   0.620E-03    0.487E-04
DAV:  11    -0.416785758006E+02    0.18461E-07   -0.46478E-08  9888   0.256E-03    0.193E-04
DAV:  12    -0.416785757972E+02    0.34402E-08   -0.51157E-09  6076   0.867E-04
   5 F= -.41678576E+02 E0= -.41678575E+02  d E =-.231123E-02
 curvature:  -1.64 expect dE=-0.246E-02 dE for cont linesearch -0.319E-05
 trial: gam= 0.76575 g(F)=  0.119E-02 g(S)=  0.308E-03 ort =-0.758E-04 (trialstep = 0.120E+01)
 search vector abs. value=  0.311E-02
 bond charge predicted
       N       E                     dE             d eps       ncg     rms          rms(c)
DAV:   1    -0.416816186004E+02   -0.30428E-02   -0.64889E-01  9940   0.463E+00    0.490E-01
DAV:   2    -0.416808357978E+02    0.78280E-03   -0.22531E-02 11928   0.143E+00    0.293E-01
DAV:   3    -0.416793852009E+02    0.14506E-02   -0.21049E-03 14968   0.522E-01    0.613E-02
DAV:   4    -0.416793940907E+02   -0.88898E-05   -0.67425E-04 10740   0.247E-01    0.171E-02
DAV:   5    -0.416794032392E+02   -0.91485E-05   -0.11711E-04 12020   0.115E-01    0.167E-02
DAV:   6    -0.416794023518E+02    0.88741E-06   -0.85117E-06 11712   0.561E-02    0.914E-03
DAV:   7    -0.416794023868E+02   -0.35024E-07   -0.37945E-06 13252   0.225E-02    0.266E-03
DAV:   8    -0.416794024130E+02   -0.26144E-07   -0.10895E-06 12148   0.976E-03    0.121E-03
DAV:   9    -0.416794024225E+02   -0.95788E-08   -0.28866E-07 14156   0.591E-03    0.962E-04
DAV:  10    -0.416794024169E+02    0.56143E-08   -0.65666E-08 11640   0.281E-03
   6 F= -.41679402E+02 E0= -.41679401E+02  d E =-.826620E-03
 trial-energy change:   -0.000827  1 .order   -0.000821   -0.001729    0.000086
 step:   1.1441(harm=  1.1431)  dis= 0.00562  next Energy=   -41.679404 (dE=-0.829E-03)
 bond charge predicted
       N       E                     dE             d eps       ncg     rms          rms(c)
DAV:   1    -0.416794092379E+02   -0.68153E-05   -0.14164E-03 10052   0.217E-01    0.229E-02
DAV:   2    -0.416794076003E+02    0.16376E-05   -0.49326E-05 11816   0.682E-02    0.137E-02
DAV:   3    -0.416794044310E+02    0.31693E-05   -0.49143E-06 14340   0.271E-02    0.319E-03
DAV:   4    -0.416794044389E+02   -0.78921E-08   -0.15007E-06 10776   0.149E-02    0.797E-04
DAV:   5    -0.416794044665E+02   -0.27667E-07   -0.31339E-07 11988   0.585E-03    0.753E-04
DAV:   6    -0.416794044654E+02    0.11355E-08   -0.23885E-08  7772   0.274E-03
   7 F= -.41679404E+02 E0= -.41679403E+02  d E =-.828668E-03
 curvature:  -1.24 expect dE=-0.921E-03 dE for cont linesearch -0.123E-08
 trial: gam= 0.44423 g(F)=  0.658E-03 g(S)=  0.885E-04 ort = 0.176E-05 (trialstep = 0.119E+01)
 search vector abs. value=  0.136E-02
 bond charge predicted
       N       E                     dE             d eps       ncg     rms          rms(c)
DAV:   1    -0.416801295432E+02   -0.72508E-03   -0.34918E-01  9884   0.330E+00    0.224E-01
DAV:   2    -0.416804568745E+02   -0.32733E-03   -0.97606E-03 12056   0.802E-01    0.132E-01
DAV:   3    -0.416801774983E+02    0.27938E-03   -0.52548E-04 14116   0.219E-01    0.433E-02
DAV:   4    -0.416801575863E+02    0.19912E-04   -0.14685E-04 11256   0.106E-01    0.901E-03
DAV:   5    -0.416801600565E+02   -0.24702E-05   -0.33226E-05 11884   0.643E-02    0.650E-03
DAV:   6    -0.416801599729E+02    0.83572E-07   -0.26807E-06 12140   0.344E-02    0.257E-03
DAV:   7    -0.416801600406E+02   -0.67709E-07   -0.73243E-07 12180   0.960E-03    0.101E-03
DAV:   8    -0.416801600484E+02   -0.77903E-08   -0.10766E-07 11172   0.417E-03    0.535E-04
DAV:   9    -0.416801600510E+02   -0.25580E-08   -0.22427E-08  7596   0.271E-03
   8 F= -.41680160E+02 E0= -.41680159E+02  d E =-.755586E-03
 trial-energy change:   -0.000756  1 .order   -0.000761   -0.000888   -0.000633
 step:   4.1447(harm=  4.1447)  dis= 0.01136  next Energy=   -41.680952 (dE=-0.155E-02)
 bond charge predicted
       N       E                     dE             d eps       ncg     rms          rms(c)
DAV:   1    -0.416807226441E+02   -0.56260E-03   -0.21580E+00  9884   0.822E+00    0.558E-01
DAV:   2    -0.416827788779E+02   -0.20562E-02   -0.60645E-02 12160   0.200E+00    0.328E-01
DAV:   3    -0.416810535506E+02    0.17253E-02   -0.32153E-03 14080   0.573E-01    0.110E-01
DAV:   4    -0.416809240709E+02    0.12948E-03   -0.94200E-04 11400   0.283E-01    0.222E-02
DAV:   5    -0.416809401827E+02   -0.16112E-04   -0.21655E-04 11760   0.146E-01    0.166E-02
DAV:   6    -0.416809391108E+02    0.10719E-05   -0.11572E-05 12364   0.660E-02    0.733E-03
DAV:   7    -0.416809394495E+02   -0.33866E-06   -0.43599E-06 13552   0.277E-02    0.232E-03
DAV:   8    -0.416809395219E+02   -0.72477E-07   -0.75713E-07 12368   0.126E-02    0.129E-03
DAV:   9    -0.416809395373E+02   -0.15364E-07   -0.14589E-07 11676   0.473E-03    0.550E-04
DAV:  10    -0.416809395395E+02   -0.22114E-08   -0.40691E-08 10476   0.233E-03
   9 F= -.41680940E+02 E0= -.41680938E+02  d E =-.153507E-02
 curvature:  -3.78 expect dE=-0.485E-02 dE for cont linesearch -0.300E-07
 trial: gam= 1.76878 g(F)=  0.117E-02 g(S)=  0.116E-03 ort = 0.329E-05 (trialstep = 0.436E+00)
 search vector abs. value=  0.556E-02
 bond charge predicted
       N       E                     dE             d eps       ncg     rms          rms(c)
DAV:   1    -0.416812706739E+02   -0.33114E-03   -0.20670E-01  9868   0.251E+00    0.143E-01
DAV:   2    -0.416815129569E+02   -0.24228E-03   -0.50605E-03 12032   0.599E-01    0.846E-02
DAV:   3    -0.416814265881E+02    0.86369E-04   -0.29022E-04 13520   0.199E-01    0.385E-02
DAV:   4    -0.416814052302E+02    0.21358E-04   -0.77289E-05 12992   0.113E-01    0.653E-03
DAV:   5    -0.416814073580E+02   -0.21278E-05   -0.25798E-05 10956   0.466E-02    0.496E-03
DAV:   6    -0.416814072718E+02    0.86199E-07   -0.14253E-06 12792   0.167E-02    0.229E-03
DAV:   7    -0.416814073325E+02   -0.60783E-07   -0.49286E-07 12724   0.106E-02    0.739E-04
DAV:   8    -0.416814073546E+02   -0.22020E-07   -0.10096E-07 11244   0.369E-03    0.432E-04
DAV:   9    -0.416814073565E+02   -0.19481E-08   -0.15670E-08  6864   0.140E-03
  10 F= -.41681407E+02 E0= -.41681406E+02  d E =-.467817E-03
 trial-energy change:   -0.000468  1 .order   -0.000484   -0.000563   -0.000405
 step:   1.5565(harm=  1.5565)  dis= 0.01026  next Energy=   -41.681943 (dE=-0.100E-02)
 bond charge predicted
       N       E                     dE             d eps       ncg     rms          rms(c)
DAV:   1    -0.416809865882E+02    0.42077E-03   -0.13625E+00  9864   0.646E+00    0.367E-01
DAV:   2    -0.416826085365E+02   -0.16219E-02   -0.33595E-02 12048   0.156E+00    0.218E-01
DAV:   3    -0.416820525484E+02    0.55599E-03   -0.19903E-03 13496   0.533E-01    0.100E-01
DAV:   4    -0.416819067517E+02    0.14580E-03   -0.52346E-04 13136   0.291E-01    0.171E-02
DAV:   5    -0.416819211524E+02   -0.14401E-04   -0.17372E-04 10948   0.115E-01    0.126E-02
DAV:   6    -0.416819203559E+02    0.79649E-06   -0.87115E-06 12916   0.437E-02    0.618E-03
DAV:   7    -0.416819205333E+02   -0.17744E-06   -0.31485E-06 12936   0.270E-02    0.202E-03
DAV:   8    -0.416819206479E+02   -0.11461E-06   -0.69202E-07 12612   0.103E-02    0.113E-03
DAV:   9    -0.416819206581E+02   -0.10155E-07   -0.11952E-07 11144   0.347E-03    0.627E-04
DAV:  10    -0.416819206717E+02   -0.13658E-07   -0.24562E-08  7992   0.232E-03    0.171E-04
DAV:  11    -0.416819206776E+02   -0.58708E-08   -0.85053E-09  6156   0.120E-03
  11 F= -.41681921E+02 E0= -.41681919E+02  d E =-.981138E-03
 curvature:  -3.35 expect dE=-0.200E-02 dE for cont linesearch -0.517E-07
 trial: gam= 0.48129 g(F)=  0.474E-03 g(S)=  0.123E-03 ort =-0.926E-05 (trialstep = 0.660E+00)
 search vector abs. value=  0.188E-02
 bond charge predicted
       N       E                     dE             d eps       ncg     rms          rms(c)
DAV:   1    -0.416821401867E+02   -0.21951E-03   -0.17166E-01  9888   0.222E+00    0.117E-01
DAV:   2    -0.416823010734E+02   -0.16089E-03   -0.32603E-03 11664   0.493E-01    0.702E-02
DAV:   3    -0.416822437670E+02    0.57306E-04   -0.20622E-04 13560   0.152E-01    0.296E-02
DAV:   4    -0.416822328708E+02    0.10896E-04   -0.45652E-05 12560   0.878E-02    0.500E-03
DAV:   5    -0.416822340970E+02   -0.12262E-05   -0.15210E-05 11368   0.373E-02    0.412E-03
DAV:   6    -0.416822339643E+02    0.13273E-06   -0.96278E-07 12452   0.116E-02    0.174E-03
DAV:   7    -0.416822339525E+02    0.11794E-07   -0.24913E-07 14004   0.525E-03    0.558E-04
DAV:   8    -0.416822339462E+02    0.62928E-08   -0.49362E-08 10684   0.243E-03
  12 F= -.41682234E+02 E0= -.41682233E+02  d E =-.313269E-03
 trial-energy change:   -0.000313  1 .order   -0.000312   -0.000391   -0.000234
 step:   1.5733(harm=  1.6369)  dis= 0.00914  next Energy=   -41.682397 (dE=-0.477E-03)
 bond charge predicted
       N       E                     dE             d eps       ncg     rms          rms(c)
DAV:   1    -0.416822234156E+02    0.10537E-04   -0.32808E-01  9896   0.307E+00    0.162E-01
DAV:   2    -0.416825305498E+02   -0.30713E-03   -0.62259E-03 11640   0.680E-01    0.970E-02
DAV:   3    -0.416824203230E+02    0.11023E-03   -0.39116E-04 13616   0.207E-01    0.408E-02
DAV:   4    -0.416823997116E+02    0.20611E-04   -0.86057E-05 12632   0.121E-01    0.687E-03
DAV:   5    -0.416824020247E+02   -0.23131E-05   -0.28710E-05 11380   0.514E-02    0.571E-03
DAV:   6    -0.416824017922E+02    0.23256E-06   -0.18533E-06 12428   0.162E-02    0.234E-03
DAV:   7    -0.416824017849E+02    0.72246E-08   -0.47755E-07 13944   0.734E-03    0.756E-04
DAV:   8    -0.416824017789E+02    0.60609E-08   -0.91428E-08 10908   0.332E-03
  13 F= -.41682402E+02 E0= -.41682401E+02  d E =-.481101E-03
 curvature:  -2.58 expect dE=-0.592E-03 dE for cont linesearch -0.381E-06
 trial: gam= 0.32799 g(F)=  0.216E-03 g(S)=  0.140E-04 ort = 0.167E-04 (trialstep = 0.843E+00)
 search vector abs. value=  0.442E-03
 bond charge predicted
       N       E                     dE             d eps       ncg     rms          rms(c)
DAV:   1    -0.416825076116E+02   -0.10583E-03   -0.67996E-02 10072   0.144E+00    0.813E-02
DAV:   2    -0.416825617748E+02   -0.54163E-04   -0.15107E-03 11512   0.425E-01    0.469E-02
DAV:   3    -0.416825462408E+02    0.15534E-04   -0.13618E-04 13112   0.145E-01    0.243E-02
DAV:   4    -0.416825372678E+02    0.89731E-05   -0.25113E-05 13808   0.808E-02    0.441E-03
DAV:   5    -0.416825379531E+02   -0.68532E-06   -0.10231E-05 10836   0.272E-02    0.245E-03
DAV:   6    -0.416825380124E+02   -0.59305E-07   -0.84222E-07 12960   0.997E-03    0.162E-03
DAV:   7    -0.416825380297E+02   -0.17343E-07   -0.12054E-07 12320   0.681E-03    0.887E-04
DAV:   8    -0.416825380698E+02   -0.40076E-07   -0.58212E-08 11120   0.266E-03    0.249E-04
DAV:   9    -0.416825380733E+02   -0.34865E-08   -0.13248E-08  6400   0.122E-03
  14 F= -.41682538E+02 E0= -.41682537E+02  d E =-.136294E-03
 trial-energy change:   -0.000136  1 .order   -0.000137   -0.000198   -0.000075
 step:   1.3844(harm=  1.3614)  dis= 0.00442  next Energy=   -41.682562 (dE=-0.160E-03)
 bond charge predicted
       N       E                     dE             d eps       ncg     rms          rms(c)
DAV:   1    -0.416825487638E+02   -0.10694E-04   -0.28052E-02 10080   0.925E-01    0.522E-02
DAV:   2    -0.416825710496E+02   -0.22286E-04   -0.62161E-04 11520   0.272E-01    0.300E-02
DAV:   3    -0.416825644450E+02    0.66046E-05   -0.55916E-05 13108   0.925E-02    0.156E-02
DAV:   4    -0.416825606776E+02    0.37674E-05   -0.10312E-05 13752   0.517E-02    0.282E-03
DAV:   5    -0.416825609547E+02   -0.27710E-06   -0.42115E-06 10824   0.175E-02    0.158E-03
DAV:   6    -0.416825609867E+02   -0.31954E-07   -0.34642E-07 12976   0.646E-03    0.104E-03
DAV:   7    -0.416825609997E+02   -0.12991E-07   -0.48775E-08 10460   0.438E-03    0.570E-04
DAV:   8    -0.416825610241E+02   -0.24483E-07   -0.22542E-08  7444   0.170E-03    0.157E-04
DAV:   9    -0.416825610269E+02   -0.27449E-08   -0.76805E-09  6088   0.994E-04
  15 F= -.41682561E+02 E0= -.41682560E+02  d E =-.159248E-03
 curvature:  -1.28 expect dE=-0.123E-03 dE for cont linesearch -0.426E-07
 trial: gam= 0.46513 g(F)=  0.858E-04 g(S)=  0.101E-04 ort =-0.384E-05 (trialstep = 0.951E+00)
 search vector abs. value=  0.188E-03
 bond charge predicted
       N       E                     dE             d eps       ncg     rms          rms(c)
DAV:   1    -0.416826135044E+02   -0.52480E-04   -0.37114E-02  9896   0.111E+00    0.687E-02
DAV:   2    -0.416826459617E+02   -0.32457E-04   -0.10842E-03 11492   0.349E-01    0.381E-02
DAV:   3    -0.416826356001E+02    0.10362E-04   -0.78358E-05 13052   0.107E-01    0.194E-02
DAV:   4    -0.416826297111E+02    0.58890E-05   -0.15340E-05 13244   0.555E-02    0.408E-03
DAV:   5    -0.416826301462E+02   -0.43509E-06   -0.59198E-06 10776   0.213E-02    0.194E-03
DAV:   6    -0.416826301312E+02    0.14931E-07   -0.55027E-07 12704   0.727E-03    0.128E-03
DAV:   7    -0.416826301063E+02    0.24934E-07   -0.67167E-08 11156   0.485E-03    0.707E-04
DAV:   8    -0.416826300745E+02    0.31758E-07   -0.28327E-08  8612   0.194E-03    0.205E-04
DAV:   9    -0.416826300728E+02    0.17239E-08   -0.99131E-09  6116   0.127E-03
  16 F= -.41682630E+02 E0= -.41682629E+02  d E =-.690459E-04
 trial-energy change:   -0.000069  1 .order   -0.000069   -0.000089   -0.000048
 step:   1.9917(harm=  2.0607)  dis= 0.00347  next Energy=   -41.682657 (dE=-0.957E-04)
 bond charge predicted
       N       E                     dE             d eps       ncg     rms          rms(c)
DAV:   1    -0.416826391257E+02   -0.90512E-05   -0.44399E-02  9896   0.121E+00    0.752E-02
DAV:   2    -0.416826778262E+02   -0.38701E-04   -0.12960E-03 11512   0.382E-01    0.417E-02
DAV:   3    -0.416826653452E+02    0.12481E-04   -0.93628E-05 13044   0.116E-01    0.212E-02
DAV:   4    -0.416826582772E+02    0.70679E-05   -0.18347E-05 13264   0.607E-02    0.446E-03
DAV:   5    -0.416826587935E+02   -0.51623E-06   -0.70790E-06 10776   0.233E-02    0.213E-03
DAV:   6    -0.416826587781E+02    0.15374E-07   -0.65663E-07 12708   0.797E-03    0.140E-03
DAV:   7    -0.416826587502E+02    0.27902E-07   -0.81150E-08 11580   0.533E-03    0.770E-04
DAV:   8    -0.416826587162E+02    0.33955E-07   -0.34655E-08  9376   0.213E-03    0.221E-04
DAV:   9    -0.416826587136E+02    0.25734E-08   -0.10672E-08  6140   0.132E-03
  17 F= -.41682659E+02 E0= -.41682657E+02  d E =-.976868E-04
 curvature:  -2.05 expect dE=-0.158E-03 dE for cont linesearch -0.991E-07
 trial: gam= 0.72326 g(F)=  0.556E-04 g(S)=  0.212E-04 ort = 0.301E-05 (trialstep = 0.116E+01)
 search vector abs. value=  0.179E-03
 bond charge predicted
       N       E                     dE             d eps       ncg     rms          rms(c)
DAV:   1    -0.416826631438E+02   -0.44276E-05   -0.53977E-02 10160   0.142E+00    0.913E-02
DAV:   2    -0.416827433774E+02   -0.80234E-04   -0.23896E-03 12028   0.527E-01    0.464E-02
DAV:   3    -0.416827266925E+02    0.16685E-04   -0.15266E-04 12824   0.154E-01    0.236E-02
DAV:   4    -0.416827152056E+02    0.11487E-04   -0.30859E-05 13408   0.722E-02    0.646E-03
DAV:   5    -0.416827156288E+02   -0.42319E-06   -0.11908E-05 10904   0.281E-02    0.262E-03
DAV:   6    -0.416827156483E+02   -0.19522E-07   -0.10187E-06 12196   0.108E-02    0.171E-03
DAV:   7    -0.416827156608E+02   -0.12507E-07   -0.13648E-07 13988   0.682E-03    0.899E-04
DAV:   8    -0.416827156922E+02   -0.31416E-07   -0.45381E-08 10500   0.230E-03    0.308E-04
DAV:   9    -0.416827156974E+02   -0.51618E-08   -0.13887E-08  6744   0.144E-03
  18 F= -.41682716E+02 E0= -.41682714E+02  d E =-.569837E-04
 trial-energy change:   -0.000057  1 .order   -0.000058   -0.000092   -0.000024
 step:   1.5908(harm=  1.5609)  dis= 0.00231  next Energy=   -41.682720 (dE=-0.613E-04)
 bond charge predicted
       N       E                     dE             d eps       ncg     rms          rms(c)
DAV:   1    -0.416827124177E+02    0.32745E-05   -0.74724E-03 10112   0.526E-01    0.340E-02
DAV:   2    -0.416827236656E+02   -0.11248E-04   -0.33142E-04 12036   0.196E-01    0.172E-02
DAV:   3    -0.416827211597E+02    0.25059E-05   -0.21253E-05 12836   0.570E-02    0.876E-03
DAV:   4    -0.416827194511E+02    0.17086E-05   -0.42550E-06 13396   0.269E-02    0.239E-03
DAV:   5    -0.416827194771E+02   -0.26047E-07   -0.16546E-06 10908   0.105E-02    0.977E-04
DAV:   6    -0.416827194897E+02   -0.12546E-07   -0.13967E-07 12132   0.399E-03    0.632E-04
DAV:   7    -0.416827194969E+02   -0.72309E-08   -0.14207E-08  6256   0.256E-03
  19 F= -.41682719E+02 E0= -.41682718E+02  d E =-.607833E-04
 curvature:  -1.76 expect dE=-0.933E-04 dE for cont linesearch -0.682E-07
 trial: gam= 0.77629 g(F)=  0.332E-04 g(S)=  0.197E-04 ort =-0.263E-05 (trialstep = 0.125E+01)
 search vector abs. value=  0.157E-03
 bond charge predicted
       N       E                     dE             d eps       ncg     rms          rms(c)
DAV:   1    -0.416826539640E+02    0.65526E-04   -0.57319E-02 10016   0.139E+00    0.765E-02
DAV:   2    -0.416827716381E+02   -0.11767E-03   -0.22071E-03 11480   0.448E-01    0.400E-02
DAV:   3    -0.416827622056E+02    0.94325E-05   -0.12763E-04 12796   0.135E-01    0.209E-02
DAV:   4    -0.416827540980E+02    0.81076E-05   -0.24975E-05 13448   0.654E-02    0.638E-03
DAV:   5    -0.416827547787E+02   -0.68074E-06   -0.10572E-05 10820   0.263E-02    0.255E-03
DAV:   6    -0.416827547339E+02    0.44779E-07   -0.79866E-07 12176   0.118E-02    0.147E-03
DAV:   7    -0.416827547005E+02    0.33444E-07   -0.16599E-07 13252   0.683E-03    0.523E-04
DAV:   8    -0.416827546898E+02    0.10688E-07   -0.36297E-08  9392   0.246E-03    0.264E-04
DAV:   9    -0.416827546896E+02    0.22283E-09   -0.96973E-09  6064   0.108E-03
  20 F= -.41682755E+02 E0= -.41682753E+02  d E =-.351927E-04
 trial-energy change:   -0.000035  1 .order   -0.000034   -0.000063   -0.000005
 step:   1.3523(harm=  1.3621)  dis= 0.00210  next Energy=   -41.682755 (dE=-0.354E-04)
 bond charge predicted
       N       E                     dE             d eps       ncg     rms          rms(c)
DAV:   1    -0.416827541577E+02    0.53205E-06   -0.42021E-04 10124   0.119E-01    0.656E-03
DAV:   2    -0.416827550091E+02   -0.85140E-06   -0.16158E-05 11504   0.383E-02    0.341E-03
DAV:   3    -0.416827550013E+02    0.78348E-08   -0.93280E-07 12740   0.116E-02    0.178E-03
DAV:   4    -0.416827549750E+02    0.26307E-07   -0.18234E-07 13300   0.564E-03    0.548E-04
DAV:   5    -0.416827549924E+02   -0.17384E-07   -0.76745E-08 10672   0.222E-03    0.215E-04
DAV:   6    -0.416827549909E+02    0.15239E-08   -0.51479E-09  5956   0.989E-04
  21 F= -.41682755E+02 E0= -.41682754E+02  d E =-.354939E-04
 curvature:  -2.09 expect dE=-0.328E-04 dE for cont linesearch -0.186E-09
 trial: gam= 0.22515 g(F)=  0.131E-04 g(S)=  0.259E-05 ort =-0.118E-06 (trialstep = 0.127E+01)
 search vector abs. value=  0.236E-04
 bond charge predicted
       N       E                     dE             d eps       ncg     rms          rms(c)
DAV:   1    -0.416827558941E+02   -0.90176E-06   -0.78893E-03  9864   0.480E-01    0.262E-02
DAV:   2    -0.416827687689E+02   -0.12875E-04   -0.22484E-04 12328   0.117E-01    0.169E-02
DAV:   3    -0.416827653975E+02    0.33714E-05   -0.10536E-05 13724   0.384E-02    0.802E-03
DAV:   4    -0.416827643792E+02    0.10182E-05   -0.34421E-06 13588   0.236E-02    0.184E-03
DAV:   5    -0.416827644371E+02   -0.57900E-07   -0.11420E-06 11032   0.113E-02    0.101E-03
DAV:   6    -0.416827644311E+02    0.60895E-08   -0.99528E-08 11760   0.523E-03
  22 F= -.41682764E+02 E0= -.41682763E+02  d E =-.944019E-05
 trial-energy change:   -0.000009  1 .order   -0.000010   -0.000020    0.000001
 step:   1.2266(harm=  1.2286)  dis= 0.00054  next Energy=   -41.682764 (dE=-0.945E-05)
 bond charge predicted
       N       E                     dE             d eps       ncg     rms          rms(c)
DAV:   1    -0.416827644250E+02    0.12126E-07   -0.77491E-06 10240   0.153E-02    0.815E-04
DAV:   2    -0.416827644406E+02   -0.15596E-07   -0.20138E-07 12308   0.388E-03    0.539E-04
DAV:   3    -0.416827644438E+02   -0.32283E-08   -0.10566E-08  6276   0.176E-03
  23 F= -.41682764E+02 E0= -.41682763E+02  d E =-.945298E-05
 curvature:  -0.92 expect dE=-0.344E-05 dE for cont linesearch -0.269E-09
 trial: gam= 0.24338 g(F)=  0.320E-05 g(S)=  0.526E-06 ort = 0.830E-07 (trialstep = 0.126E+01)
 search vector abs. value=  0.517E-05
 bond charge predicted
       N       E                     dE             d eps       ncg     rms          rms(c)
DAV:   1    -0.416827672049E+02   -0.27642E-05   -0.17520E-03  9876   0.223E-01    0.126E-02
DAV:   2    -0.416827686083E+02   -0.14035E-05   -0.35829E-05 12044   0.498E-02    0.762E-03
DAV:   3    -0.416827678358E+02    0.77251E-06   -0.20158E-06 14128   0.150E-02    0.295E-03
DAV:   4    -0.416827677368E+02    0.98972E-07   -0.56000E-07 11180   0.902E-03    0.633E-04
DAV:   5    -0.416827677519E+02   -0.15032E-07   -0.16250E-07 11392   0.468E-03    0.441E-04
DAV:   6    -0.416827677526E+02   -0.71805E-09   -0.13784E-08  6172   0.227E-03
  24 F= -.41682768E+02 E0= -.41682766E+02  d E =-.330875E-05
 trial-energy change:   -0.000003  1 .order   -0.000003   -0.000005   -0.000002
 step:   1.7570(harm=  1.9312)  dis= 0.00027  next Energy=   -41.682768 (dE=-0.364E-05)
 bond charge predicted
       N       E                     dE             d eps       ncg     rms          rms(c)
DAV:   1    -0.416827681275E+02   -0.37563E-06   -0.27476E-04  9888   0.884E-02    0.498E-03
DAV:   2    -0.416827683435E+02   -0.21596E-06   -0.56405E-06 12068   0.197E-02    0.304E-03
DAV:   3    -0.416827682359E+02    0.10756E-06   -0.31738E-07 14064   0.647E-03    0.118E-03
DAV:   4    -0.416827682240E+02    0.11904E-07   -0.95136E-08 11072   0.398E-03    0.273E-04
DAV:   5    -0.416827682266E+02   -0.26457E-08   -0.25625E-08  8048   0.201E-03
  25 F= -.41682768E+02 E0= -.41682767E+02  d E =-.378280E-05
 curvature:  -1.24 expect dE=-0.108E-05 dE for cont linesearch -0.351E-07
 trial: gam= 0.14876 g(F)=  0.826E-06 g(S)=  0.473E-07 ort = 0.382E-06 (trialstep = 0.136E+01)
 search vector abs. value=  0.110E-05
 bond charge predicted
       N       E                     dE             d eps       ncg     rms          rms(c)
DAV:   1    -0.416827683332E+02   -0.10915E-06   -0.44865E-04  9904   0.118E-01    0.600E-03
DAV:   2    -0.416827691202E+02   -0.78705E-06   -0.12942E-05 12064   0.313E-02    0.331E-03
DAV:   3    -0.416827689780E+02    0.14219E-06   -0.85189E-07 13124   0.961E-03    0.187E-03
DAV:   4    -0.416827689299E+02    0.48118E-07   -0.18467E-07 14320   0.698E-03    0.420E-04
DAV:   5    -0.416827689349E+02   -0.49768E-08   -0.92153E-08 10752   0.267E-03
  26 F= -.41682769E+02 E0= -.41682768E+02  d E =-.708226E-06
 trial-energy change:   -0.000001  1 .order   -0.000001   -0.000001   -0.000000
 step:   1.4149(harm=  1.4282)  dis= 0.00013  next Energy=   -41.682769 (dE=-0.710E-06)
 bond charge predicted
       N       E                     dE             d eps       ncg     rms          rms(c)
DAV:   1    -0.416827689376E+02   -0.76734E-08   -0.80362E-07 10320   0.512E-03    0.306E-04
DAV:   2    -0.416827689424E+02   -0.48481E-08   -0.28271E-08  9168   0.142E-03
  27 F= -.41682769E+02 E0= -.41682768E+02  d E =-.715771E-06
 curvature:  -0.81 expect dE=-0.327E-06 dE for cont linesearch -0.126E-09
 trial: gam= 0.53138 g(F)=  0.341E-06 g(S)=  0.603E-07 ort = 0.131E-07 (trialstep = 0.137E+01)
 search vector abs. value=  0.726E-06
 bond charge predicted
       N       E                     dE             d eps       ncg     rms          rms(c)
DAV:   1    -0.416827689287E+02    0.89040E-08   -0.30885E-04  9904   0.100E-01    0.538E-03
DAV:   2    -0.416827693338E+02   -0.40513E-06   -0.93541E-06 11592   0.310E-02    0.277E-03
DAV:   3    -0.416827693388E+02   -0.50227E-08   -0.61364E-07 12232   0.914E-03    0.147E-03
DAV:   4    -0.416827693278E+02    0.11008E-07   -0.11844E-07 12740   0.537E-03    0.381E-04
DAV:   5    -0.416827693398E+02   -0.11972E-07   -0.47761E-08 10416   0.210E-03    0.183E-04
DAV:   6    -0.416827693400E+02   -0.26557E-09   -0.42421E-09  5948   0.921E-04
  28 F= -.41682769E+02 E0= -.41682768E+02  d E =-.397626E-06
 trial-energy change:   -0.000000  1 .order   -0.000000   -0.000001   -0.000000
 step:   1.9409(harm=  1.9409)  dis= 0.00018  next Energy=   -41.682769 (dE=-0.396E-06)
 bond charge predicted
       N       E                     dE             d eps       ncg     rms          rms(c)
DAV:   1    -0.416827693078E+02    0.32026E-07   -0.53811E-05  9912   0.419E-02    0.227E-03
DAV:   2    -0.416827693722E+02   -0.64416E-07   -0.16457E-06 11604   0.131E-02    0.116E-03
DAV:   3    -0.416827693853E+02   -0.13107E-07   -0.10870E-07 12092   0.389E-03    0.617E-04
DAV:   4    -0.416827693895E+02   -0.42119E-08   -0.17254E-08  6920   0.226E-03
  29 F= -.41682769E+02 E0= -.41682768E+02  d E =-.447069E-06
 curvature:  -1.73 expect dE=-0.941E-06 dE for cont linesearch -0.724E-09
 trial: gam= 1.30398 g(F)=  0.178E-06 g(S)=  0.367E-06 ort = 0.174E-07 (trialstep = 0.590E+00)
 search vector abs. value=  0.183E-05
 bond charge predicted
       N       E                     dE             d eps       ncg     rms          rms(c)
DAV:   1    -0.416827698788E+02   -0.49350E-06   -0.14295E-04 10600   0.855E-02    0.703E-03
DAV:   2    -0.416827697372E+02    0.14153E-06   -0.95867E-06 11516   0.413E-02    0.327E-03
DAV:   3    -0.416827695889E+02    0.14831E-06   -0.68252E-07 13488   0.121E-02    0.153E-03
DAV:   4    -0.416827694967E+02    0.92231E-07   -0.13496E-07 13188   0.493E-03    0.547E-04
DAV:   5    -0.416827694760E+02    0.20699E-07   -0.39526E-08  8876   0.215E-03    0.169E-04
DAV:   6    -0.416827694775E+02   -0.14661E-08   -0.78771E-09  5912   0.106E-03
  30 F= -.41682769E+02 E0= -.41682768E+02  d E =-.879818E-07
 trial-energy change:   -0.000000  1 .order   -0.000000   -0.000000   -0.000000
 step:   0.6844(harm=  0.6844)  dis= 0.00009  next Energy=   -41.682770 (dE=-0.194E-06)
 bond charge predicted
       N       E                     dE             d eps       ncg     rms          rms(c)
DAV:   1    -0.416827695014E+02   -0.25439E-07   -0.36373E-06 10652   0.136E-02    0.115E-03
DAV:   2    -0.416827695022E+02   -0.74488E-09   -0.24361E-07 11804   0.660E-03    0.522E-04
DAV:   3    -0.416827694887E+02    0.13521E-07   -0.14662E-08  6708   0.193E-03    0.239E-04
DAV:   4    -0.416827694807E+02    0.79363E-08   -0.48405E-09  5600   0.908E-04
  31 F= -.41682769E+02 E0= -.41682768E+02  d E =-.912414E-07
 curvature:  -1.10 expect dE=-0.386E-06 dE for cont linesearch -0.381E-08
 trial: gam= 0.70524 g(F)=  0.168E-06 g(S)=  0.182E-06 ort =-0.796E-07 (trialstep = 0.609E+00)
 search vector abs. value=  0.115E-05
 reached required accuracy - stopping structural energy minimisation
 writing wavefunctions
Wed Jan  5 23:41:51 CST 2022
