Thu Jan  6 02:55:20 CST 2022
 running on   48 total cores
 distrk:  each k-point on   48 cores,    1 groups
 distr:  one band on   24 cores,    2 groups
 using from now: INCAR     
 vasp.5.3.5 31Mar14 (build Jan 11 2016 19:50:55) complex                        
  
 POSCAR found type information on POSCAR  Zn Ga N  O 
 POSCAR found :  4 types and       8 ions
 scaLAPACK will be used

 ----------------------------------------------------------------------------- 
|                                                                             |
|           W    W    AA    RRRRR   N    N  II  N    N   GGGG   !!!           |
|           W    W   A  A   R    R  NN   N  II  NN   N  G    G  !!!           |
|           W    W  A    A  R    R  N N  N  II  N N  N  G       !!!           |
|           W WW W  AAAAAA  RRRRR   N  N N  II  N  N N  G  GGG   !            |
|           WW  WW  A    A  R   R   N   NN  II  N   NN  G    G                |
|           W    W  A    A  R    R  N    N  II  N    N   GGGG   !!!           |
|                                                                             |
|      For optimal performance we recommend to set                            |
|        NCORE= 4 - approx SQRT( number of cores)                             |
|      NCORE specifies how many cores store one orbital (NPAR=cpu/NCORE).     |
|      This setting can  greatly improve the performance of VASP for DFT.     |
|      The default, NPAR=number of cores might be grossly inefficient         |
|      on modern multi-core architectures or massively parallel machines.     |
|      Do your own testing !!!!                                               |
|      Unfortunately you need to use the default for GW and RPA calculations. |
|      (for HF NCORE is supported but not extensively tested yet)             |
|                                                                             |
 ----------------------------------------------------------------------------- 

 LDA part: xc-table for Pade appr. of Perdew
 POSCAR, INCAR and KPOINTS ok, starting setup
 WARNING: small aliasing (wrap around) errors must be expected
 FFT: planning ...
 WAVECAR not read
 entering main loop
       N       E                     dE             d eps       ncg     rms          rms(c)
DAV:   1     0.906994215674E+03    0.90699E+03   -0.42113E+04 10240   0.339E+03
DAV:   2     0.144196673418E+03   -0.76280E+03   -0.73235E+03  9904   0.798E+02
DAV:   3    -0.285070604330E+02   -0.17270E+03   -0.16749E+03 11216   0.270E+02
DAV:   4    -0.436626891378E+02   -0.15156E+02   -0.14954E+02 12108   0.802E+01
DAV:   5    -0.441334883264E+02   -0.47080E+00   -0.46887E+00 12420   0.143E+01    0.154E+01
DAV:   6    -0.375168900315E+02    0.66166E+01   -0.19759E+01 18912   0.800E+01    0.753E+00
DAV:   7    -0.380463412448E+02   -0.52945E+00   -0.78598E+00 10548   0.210E+01    0.483E+00
DAV:   8    -0.379778221288E+02    0.68519E-01   -0.12177E+00 16108   0.114E+01    0.229E+00
DAV:   9    -0.379429761303E+02    0.34846E-01   -0.21325E-01 15020   0.922E+00    0.693E-01
DAV:  10    -0.379403719161E+02    0.26042E-02   -0.58263E-02 14096   0.266E+00    0.367E-01
DAV:  11    -0.379411481477E+02   -0.77623E-03   -0.10247E-02 11516   0.864E-01    0.159E-01
DAV:  12    -0.379413682184E+02   -0.22007E-03   -0.11779E-03 13712   0.601E-01    0.597E-02
DAV:  13    -0.379414181675E+02   -0.49949E-04   -0.32966E-04 12108   0.311E-01    0.178E-02
DAV:  14    -0.379414344325E+02   -0.16265E-04   -0.71680E-05 11468   0.746E-02    0.122E-02
DAV:  15    -0.379414422558E+02   -0.78233E-05   -0.15226E-05 11028   0.619E-02    0.389E-03
DAV:  16    -0.379414434562E+02   -0.12004E-05   -0.38097E-06 11900   0.367E-02    0.177E-03
DAV:  17    -0.379414435533E+02   -0.97143E-07   -0.99570E-07 11224   0.931E-03    0.991E-04
DAV:  18    -0.379414435459E+02    0.74315E-08   -0.15883E-07 11748   0.598E-03    0.448E-04
DAV:  19    -0.379414435230E+02    0.22834E-07   -0.42413E-08 11292   0.238E-03    0.269E-04
DAV:  20    -0.379414435154E+02    0.76470E-08   -0.87067E-09  6200   0.905E-04
   1 F= -.37941444E+02 E0= -.37941094E+02  d E =-.379414E+02
 curvature:   0.00 expect dE= 0.000E+00 dE for cont linesearch  0.000E+00
 trial: gam= 0.00000 g(F)=  0.100E-03 g(S)=  0.849E-02 ort = 0.000E+00 (trialstep = 0.100E+01)
 search vector abs. value=  0.859E-02
 bond charge predicted
       N       E                     dE             d eps       ncg     rms          rms(c)
DAV:   1    -0.379978898056E+02   -0.56446E-01   -0.10650E+00 12832   0.131E+01    0.166E+00
DAV:   2    -0.379571009845E+02    0.40789E-01   -0.20391E-01 12508   0.729E+00    0.718E-01
DAV:   3    -0.379490367895E+02    0.80642E-02   -0.16922E-02 15600   0.195E+00    0.337E-01
DAV:   4    -0.379464200305E+02    0.26168E-02   -0.35842E-03 15524   0.110E+00    0.788E-02
DAV:   5    -0.379464078173E+02    0.12213E-04   -0.16072E-03 10812   0.448E-01    0.309E-02
DAV:   6    -0.379464245750E+02   -0.16758E-04   -0.23763E-04 12300   0.176E-01    0.276E-02
DAV:   7    -0.379464243241E+02    0.25087E-06   -0.18859E-05 11828   0.842E-02    0.174E-02
DAV:   8    -0.379464257099E+02   -0.13858E-05   -0.83403E-06 16836   0.452E-02    0.307E-03
DAV:   9    -0.379464258750E+02   -0.16509E-06   -0.38228E-06 11972   0.261E-02    0.170E-03
DAV:  10    -0.379464259251E+02   -0.50071E-07   -0.44048E-07 12516   0.668E-03    0.107E-03
DAV:  11    -0.379464259963E+02   -0.71256E-07   -0.12158E-07 13544   0.355E-03    0.562E-04
DAV:  12    -0.379464260152E+02   -0.18903E-07   -0.36345E-08  8692   0.249E-03    0.270E-04
DAV:  13    -0.379464260126E+02    0.26703E-08   -0.90944E-09  6564   0.910E-04
   2 F= -.37946426E+02 E0= -.37946060E+02  d E =-.498250E-02
 trial-energy change:   -0.004982  1 .order   -0.005011   -0.008593   -0.001428
 step:   1.2051(harm=  1.1993)  dis= 0.00111  next Energy=   -37.946572 (dE=-0.513E-02)
 bond charge predicted
       N       E                     dE             d eps       ncg     rms          rms(c)
DAV:   1    -0.379487269437E+02   -0.23009E-02   -0.44363E-02 12808   0.266E+00    0.339E-01
DAV:   2    -0.379470184489E+02    0.17085E-02   -0.85683E-03 12468   0.151E+00    0.146E-01
DAV:   3    -0.379466803395E+02    0.33811E-03   -0.70187E-04 15456   0.408E-01    0.689E-02
DAV:   4    -0.379465704399E+02    0.10990E-03   -0.15338E-04 15532   0.227E-01    0.163E-02
DAV:   5    -0.379465693404E+02    0.10995E-05   -0.66357E-05 10836   0.938E-02    0.634E-03
DAV:   6    -0.379465701509E+02   -0.81043E-06   -0.10489E-05 12164   0.367E-02    0.570E-03
DAV:   7    -0.379465702179E+02   -0.67062E-07   -0.82990E-07 11876   0.171E-02    0.356E-03
DAV:   8    -0.379465704446E+02   -0.22666E-06   -0.34515E-07 15944   0.875E-03    0.603E-04
DAV:   9    -0.379465704552E+02   -0.10576E-07   -0.15415E-07 11176   0.516E-03    0.358E-04
DAV:  10    -0.379465704601E+02   -0.49358E-08   -0.14328E-08  6348   0.151E-03
   3 F= -.37946570E+02 E0= -.37946200E+02  d E =-.512694E-02
 curvature:  -0.60 expect dE=-0.276E-02 dE for cont linesearch -0.529E-08
 trial: gam= 0.53730 g(F)=  0.193E-02 g(S)=  0.268E-02 ort =-0.871E-05 (trialstep = 0.104E+01)
 search vector abs. value=  0.708E-02
 bond charge predicted
       N       E                     dE             d eps       ncg     rms          rms(c)
DAV:   1    -0.379610505276E+02   -0.14480E-01   -0.92347E-01  9864   0.587E+00    0.823E-01
DAV:   2    -0.379547718170E+02    0.62787E-02   -0.39598E-02 11896   0.245E+00    0.497E-01
DAV:   3    -0.379501937042E+02    0.45781E-02   -0.60982E-03 14720   0.112E+00    0.127E-01
DAV:   4    -0.379500978894E+02    0.95815E-04   -0.22940E-03 10544   0.528E-01    0.363E-02
DAV:   5    -0.379501189774E+02   -0.21088E-04   -0.35723E-04 11964   0.267E-01    0.238E-02
DAV:   6    -0.379501203999E+02   -0.14224E-05   -0.58978E-05 11508   0.110E-01    0.140E-02
DAV:   7    -0.379501204616E+02   -0.61693E-07   -0.12195E-05 14000   0.642E-02    0.390E-03
DAV:   8    -0.379501205670E+02   -0.10545E-06   -0.37104E-06 11268   0.212E-02    0.224E-03
DAV:   9    -0.379501205908E+02   -0.23765E-07   -0.89796E-07 12560   0.111E-02    0.136E-03
DAV:  10    -0.379501205578E+02    0.32986E-07   -0.14292E-07 12500   0.644E-03    0.453E-04
DAV:  11    -0.379501205473E+02    0.10494E-07   -0.38613E-08  9744   0.317E-03    0.162E-04
DAV:  12    -0.379501205464E+02    0.91950E-09   -0.77100E-09  5944   0.112E-03
   4 F= -.37950121E+02 E0= -.37949762E+02  d E =-.355009E-02
 trial-energy change:   -0.003550  1 .order   -0.003561   -0.004793   -0.002329
 step:   2.0779(harm=  2.0249)  dis= 0.00853  next Energy=   -37.951270 (dE=-0.470E-02)
 bond charge predicted
       N       E                     dE             d eps       ncg     rms          rms(c)
DAV:   1    -0.379620461382E+02   -0.11926E-01   -0.91459E-01  9864   0.585E+00    0.820E-01
DAV:   2    -0.379558252676E+02    0.62209E-02   -0.39498E-02 11880   0.246E+00    0.495E-01
DAV:   3    -0.379513096594E+02    0.45156E-02   -0.60364E-03 14648   0.112E+00    0.129E-01
DAV:   4    -0.379512017346E+02    0.10792E-03   -0.22844E-03 10540   0.533E-01    0.362E-02
DAV:   5    -0.379512234415E+02   -0.21707E-04   -0.36346E-04 11916   0.269E-01    0.238E-02
DAV:   6    -0.379512250241E+02   -0.15826E-05   -0.60401E-05 11468   0.110E-01    0.140E-02
DAV:   7    -0.379512250445E+02   -0.20412E-07   -0.12168E-05 13956   0.659E-02    0.395E-03
DAV:   8    -0.379512251510E+02   -0.10641E-06   -0.37184E-06 11244   0.214E-02    0.223E-03
DAV:   9    -0.379512251756E+02   -0.24608E-07   -0.91614E-07 12548   0.114E-02    0.136E-03
DAV:  10    -0.379512251441E+02    0.31499E-07   -0.14583E-07 12460   0.650E-03    0.453E-04
DAV:  11    -0.379512251337E+02    0.10363E-07   -0.39045E-08  9820   0.330E-03    0.161E-04
DAV:  12    -0.379512251322E+02    0.15239E-08   -0.79990E-09  5932   0.118E-03
   5 F= -.37951225E+02 E0= -.37950875E+02  d E =-.465467E-02
 curvature:  -1.55 expect dE=-0.331E-02 dE for cont linesearch -0.184E-05
 trial: gam= 0.49152 g(F)=  0.138E-02 g(S)=  0.749E-03 ort =-0.916E-04 (trialstep = 0.125E+01)
 search vector abs. value=  0.375E-02
 bond charge predicted
       N       E                     dE             d eps       ncg     rms          rms(c)
DAV:   1    -0.379565509146E+02   -0.53258E-02   -0.98833E-01 10112   0.657E+00    0.652E-01
DAV:   2    -0.379547876762E+02    0.17632E-02   -0.60027E-02 11428   0.296E+00    0.327E-01
DAV:   3    -0.379535296616E+02    0.12580E-02   -0.49490E-03 13708   0.880E-01    0.159E-01
DAV:   4    -0.379530582674E+02    0.47139E-03   -0.10441E-03 14304   0.502E-01    0.302E-02
DAV:   5    -0.379530879399E+02   -0.29673E-04   -0.44589E-04 10752   0.193E-01    0.154E-02
DAV:   6    -0.379530895022E+02   -0.15623E-05   -0.30963E-05 12484   0.778E-02    0.109E-02
DAV:   7    -0.379530894902E+02    0.12082E-07   -0.49133E-06 13380   0.450E-02    0.534E-03
DAV:   8    -0.379530898522E+02   -0.36203E-06   -0.18723E-06 13420   0.160E-02    0.124E-03
DAV:   9    -0.379530898564E+02   -0.42246E-08   -0.55499E-07 11696   0.891E-03    0.937E-04
DAV:  10    -0.379530898867E+02   -0.30292E-07   -0.87136E-08 10688   0.332E-03    0.455E-04
DAV:  11    -0.379530899110E+02   -0.24315E-07   -0.12498E-08  6328   0.133E-03    0.110E-04
DAV:  12    -0.379530899157E+02   -0.46343E-08   -0.43964E-09  5832   0.884E-04
   6 F= -.37953090E+02 E0= -.37952744E+02  d E =-.186478E-02
 trial-energy change:   -0.001865  1 .order   -0.001861   -0.002608   -0.001114
 step:   2.1797(harm=  2.1797)  dis= 0.01069  next Energy=   -37.953502 (dE=-0.228E-02)
 bond charge predicted
       N       E                     dE             d eps       ncg     rms          rms(c)
DAV:   1    -0.379554259165E+02   -0.23360E-02   -0.54921E-01 10112   0.488E+00    0.485E-01
DAV:   2    -0.379544444922E+02    0.98142E-03   -0.33115E-02 11440   0.219E+00    0.243E-01
DAV:   3    -0.379537449689E+02    0.69952E-03   -0.27268E-03 13760   0.653E-01    0.118E-01
DAV:   4    -0.379534835654E+02    0.26140E-03   -0.57387E-04 14296   0.371E-01    0.224E-02
DAV:   5    -0.379535000293E+02   -0.16464E-04   -0.24708E-04 10736   0.144E-01    0.115E-02
DAV:   6    -0.379535009020E+02   -0.87274E-06   -0.16748E-05 12516   0.565E-02    0.811E-03
DAV:   7    -0.379535009368E+02   -0.34723E-07   -0.26546E-06 13472   0.335E-02    0.399E-03
DAV:   8    -0.379535011810E+02   -0.24424E-06   -0.10350E-06 13144   0.118E-02    0.933E-04
DAV:   9    -0.379535011797E+02    0.13374E-08   -0.30129E-07 11756   0.672E-03    0.687E-04
DAV:  10    -0.379535012009E+02   -0.21282E-07   -0.52012E-08 10564   0.247E-03    0.346E-04
DAV:  11    -0.379535012188E+02   -0.17806E-07   -0.68723E-09  6028   0.108E-03    0.810E-05
DAV:  12    -0.379535012227E+02   -0.39809E-08   -0.28101E-09  5764   0.704E-04
   7 F= -.37953501E+02 E0= -.37953157E+02  d E =-.227609E-02
 curvature:  -1.96 expect dE=-0.492E-02 dE for cont linesearch -0.516E-08
 trial: gam= 1.15826 g(F)=  0.224E-02 g(S)=  0.271E-03 ort =-0.314E-05 (trialstep = 0.714E+00)
 search vector abs. value=  0.754E-02
 bond charge predicted
       N       E                     dE             d eps       ncg     rms          rms(c)
DAV:   1    -0.379551839737E+02   -0.16828E-02   -0.73263E-01  9924   0.496E+00    0.367E-01
DAV:   2    -0.379557326526E+02   -0.54868E-03   -0.25692E-02 11408   0.155E+00    0.194E-01
DAV:   3    -0.379552518374E+02    0.48082E-03   -0.18542E-03 12280   0.527E-01    0.947E-02
DAV:   4    -0.379551108280E+02    0.14101E-03   -0.47711E-04 13032   0.335E-01    0.159E-02
DAV:   5    -0.379551240992E+02   -0.13271E-04   -0.17042E-04 10716   0.134E-01    0.110E-02
DAV:   6    -0.379551247141E+02   -0.61486E-06   -0.14462E-05 13040   0.560E-02    0.697E-03
DAV:   7    -0.379551247662E+02   -0.52188E-07   -0.24351E-06 13452   0.340E-02    0.350E-03
DAV:   8    -0.379551249918E+02   -0.22553E-06   -0.95697E-07 14640   0.118E-02    0.971E-04
DAV:   9    -0.379551249865E+02    0.52805E-08   -0.20083E-07 11528   0.562E-03    0.670E-04
DAV:  10    -0.379551249985E+02   -0.11995E-07   -0.46002E-08 10240   0.225E-03    0.284E-04
DAV:  11    -0.379551250067E+02   -0.81732E-08   -0.10712E-08  5856   0.141E-03
   8 F= -.37955125E+02 E0= -.37954788E+02  d E =-.162378E-02
 trial-energy change:   -0.001624  1 .order   -0.001615   -0.001791   -0.001439
 step:   2.6255(harm=  3.6352)  dis= 0.02003  next Energy=   -37.957212 (dE=-0.371E-02)
 bond charge predicted
       N       E                     dE             d eps       ncg     rms          rms(c)
DAV:   1    -0.379578090684E+02   -0.26841E-02   -0.52565E+00  9924   0.134E+01    0.980E-01
DAV:   2    -0.379620735350E+02   -0.42645E-02   -0.18550E-01 11428   0.423E+00    0.521E-01
DAV:   3    -0.379586656343E+02    0.34079E-02   -0.13459E-02 12288   0.144E+00    0.253E-01
DAV:   4    -0.379576417908E+02    0.10238E-02   -0.33820E-03 12760   0.906E-01    0.427E-02
DAV:   5    -0.379577368426E+02   -0.95052E-04   -0.12169E-03 10728   0.347E-01    0.291E-02
DAV:   6    -0.379577411740E+02   -0.43314E-05   -0.10453E-04 12848   0.157E-01    0.188E-02
DAV:   7    -0.379577410219E+02    0.15212E-06   -0.18125E-05 13436   0.921E-02    0.918E-03
DAV:   8    -0.379577420521E+02   -0.10302E-05   -0.70714E-06 14448   0.333E-02    0.244E-03
DAV:   9    -0.379577420764E+02   -0.24311E-07   -0.14962E-06 10756   0.134E-02    0.183E-03
DAV:  10    -0.379577421166E+02   -0.40201E-07   -0.29973E-07 12932   0.519E-03    0.659E-04
DAV:  11    -0.379577421455E+02   -0.28865E-07   -0.69865E-08 12208   0.393E-03    0.212E-04
DAV:  12    -0.379577421480E+02   -0.25525E-08   -0.78621E-09  6012   0.997E-04
   9 F= -.37957742E+02 E0= -.37957422E+02  d E =-.424093E-02
 curvature:  -4.81 expect dE=-0.659E-02 dE for cont linesearch -0.329E-03
 ZBRENT: increasing intervall
 opt :   6.4480  next Energy=   -37.955526 (dE=-0.202E-02)
 bond charge predicted
       N       E                     dE             d eps       ncg     rms          rms(c)
DAV:   1    -0.379518714277E+02    0.58707E-02   -0.21086E+01  9908   0.271E+01    0.195E+00
DAV:   2    -0.379727249449E+02   -0.20854E-01   -0.76554E-01 11496   0.876E+00    0.104E+00
DAV:   3    -0.379594700289E+02    0.13255E-01   -0.55991E-02 12460   0.293E+00    0.512E-01
DAV:   4    -0.379552039826E+02    0.42660E-02   -0.13275E-02 12848   0.181E+00    0.895E-02
DAV:   5    -0.379555462679E+02   -0.34229E-03   -0.46750E-03 10940   0.661E-01    0.579E-02
DAV:   6    -0.379555666512E+02   -0.20383E-04   -0.44863E-04 12424   0.333E-01    0.376E-02
DAV:   7    -0.379555654810E+02    0.11702E-05   -0.73117E-05 13404   0.189E-01    0.191E-02
DAV:   8    -0.379555684783E+02   -0.29973E-05   -0.29459E-05 14276   0.700E-02    0.497E-03
DAV:   9    -0.379555686797E+02   -0.20137E-06   -0.72103E-06 10860   0.277E-02    0.380E-03
DAV:  10    -0.379555687652E+02   -0.85468E-07   -0.11758E-06 11872   0.851E-03    0.149E-03
DAV:  11    -0.379555688584E+02   -0.93187E-07   -0.25954E-07 12812   0.696E-03    0.434E-04
DAV:  12    -0.379555688625E+02   -0.41609E-08   -0.32940E-08 10156   0.170E-03
  10 F= -.37955569E+02 E0= -.37955280E+02  d E =-.206764E-02
 curvature:  32.44 expect dE= 0.299E+00 dE for cont linesearch  0.146E-01
 ZBRENT: bracketing found
 ZBRENT: interpolating
 opt :   3.6974  next Energy=   -37.958127 (dE=-0.463E-02)
 bond charge predicted
       N       E                     dE             d eps       ncg     rms          rms(c)
DAV:   1    -0.379583460933E+02   -0.27772E-02   -0.10778E+01  9932   0.188E+01    0.140E+00
DAV:   2    -0.379670827883E+02   -0.87367E-02   -0.37709E-01 11388   0.544E+00    0.745E-01
DAV:   3    -0.379600026317E+02    0.70802E-02   -0.25852E-02 13324   0.192E+00    0.366E-01
DAV:   4    -0.379579297840E+02    0.20728E-02   -0.67233E-03 13588   0.113E+00    0.635E-02
DAV:   5    -0.379581064251E+02   -0.17664E-03   -0.24442E-03 10656   0.520E-01    0.456E-02
DAV:   6    -0.379581095520E+02   -0.31269E-05   -0.21080E-04 13636   0.171E-01    0.264E-02
DAV:   7    -0.379581077569E+02    0.17951E-05   -0.28649E-05 14020   0.112E-01    0.151E-02
DAV:   8    -0.379581085138E+02   -0.75693E-06   -0.13257E-05 13220   0.401E-02    0.567E-03
DAV:   9    -0.379581081709E+02    0.34291E-06   -0.35935E-06 13372   0.206E-02    0.270E-03
DAV:  10    -0.379581082244E+02   -0.53469E-07   -0.11801E-06 10864   0.775E-03    0.162E-03
DAV:  11    -0.379581082081E+02    0.16329E-07   -0.15649E-07 14992   0.581E-03    0.475E-04
DAV:  12    -0.379581082030E+02    0.50813E-08   -0.62825E-08 10596   0.220E-03
  11 F= -.37958108E+02 E0= -.37957797E+02  d E =-.460698E-02
 curvature:  -0.86 expect dE=-0.209E-02 dE for cont linesearch -0.709E-08
 trial: gam= 1.02511 g(F)=  0.212E-02 g(S)=  0.322E-03 ort =-0.791E-05 (trialstep = 0.955E+00)
 search vector abs. value=  0.104E-01
 bond charge predicted
       N       E                     dE             d eps       ncg     rms          rms(c)
DAV:   1    -0.379608589497E+02   -0.27507E-02   -0.17265E+00  9932   0.782E+00    0.603E-01
DAV:   2    -0.379613184049E+02   -0.45946E-03   -0.64472E-02 11068   0.274E+00    0.313E-01
DAV:   3    -0.379601170734E+02    0.12013E-02   -0.55832E-03 12660   0.894E-01    0.155E-01
DAV:   4    -0.379597112385E+02    0.40583E-03   -0.12783E-03 13188   0.506E-01    0.291E-02
DAV:   5    -0.379597437851E+02   -0.32547E-04   -0.45477E-04 10816   0.209E-01    0.169E-02
DAV:   6    -0.379597453383E+02   -0.15532E-05   -0.39970E-05 12404   0.804E-02    0.111E-02
DAV:   7    -0.379597450981E+02    0.24024E-06   -0.62728E-06 13724   0.588E-02    0.587E-03
DAV:   8    -0.379597454382E+02   -0.34008E-06   -0.26413E-06 13140   0.186E-02    0.153E-03
DAV:   9    -0.379597454587E+02   -0.20536E-07   -0.63845E-07 12128   0.105E-02    0.109E-03
DAV:  10    -0.379597454844E+02   -0.25656E-07   -0.11998E-07 11796   0.266E-03    0.519E-04
DAV:  11    -0.379597455065E+02   -0.22163E-07   -0.27341E-08  9092   0.181E-03    0.173E-04
DAV:  12    -0.379597455091E+02   -0.25702E-08   -0.47507E-09  5756   0.878E-04
  12 F= -.37959746E+02 E0= -.37959441E+02  d E =-.163731E-02
 trial-energy change:   -0.001637  1 .order   -0.001639   -0.002325   -0.000954
 step:   1.6199(harm=  1.6199)  dis= 0.01314  next Energy=   -37.960080 (dE=-0.197E-02)
 bond charge predicted
       N       E                     dE             d eps       ncg     rms          rms(c)
DAV:   1    -0.379606172619E+02   -0.87176E-03   -0.83568E-01  9936   0.543E+00    0.419E-01
DAV:   2    -0.379608331162E+02   -0.21585E-03   -0.31006E-02 11064   0.189E+00    0.217E-01
DAV:   3    -0.379602509501E+02    0.58217E-03   -0.26820E-03 12568   0.620E-01    0.108E-01
DAV:   4    -0.379600565636E+02    0.19439E-03   -0.62115E-04 13220   0.351E-01    0.202E-02
DAV:   5    -0.379600724800E+02   -0.15916E-04   -0.22066E-04 10808   0.145E-01    0.118E-02
DAV:   6    -0.379600731901E+02   -0.71011E-06   -0.18745E-05 12456   0.548E-02    0.770E-03
DAV:   7    -0.379600731085E+02    0.81664E-07   -0.30120E-06 13824   0.405E-02    0.403E-03
DAV:   8    -0.379600733087E+02   -0.20022E-06   -0.12512E-06 13220   0.127E-02    0.107E-03
DAV:   9    -0.379600733182E+02   -0.94942E-08   -0.29355E-07 12164   0.705E-03    0.753E-04
DAV:  10    -0.379600733337E+02   -0.15525E-07   -0.56099E-08 10780   0.186E-03    0.354E-04
DAV:  11    -0.379600733485E+02   -0.14749E-07   -0.12939E-08  5996   0.133E-03    0.129E-04
DAV:  12    -0.379600733504E+02   -0.19327E-08   -0.30488E-09  5696   0.767E-04
  13 F= -.37960073E+02 E0= -.37959774E+02  d E =-.196515E-02
 curvature:  -3.44 expect dE=-0.397E-02 dE for cont linesearch -0.832E-08
 trial: gam= 0.47840 g(F)=  0.821E-03 g(S)=  0.332E-03 ort =-0.500E-05 (trialstep = 0.109E+01)
 search vector abs. value=  0.352E-02
 bond charge predicted
       N       E                     dE             d eps       ncg     rms          rms(c)
DAV:   1    -0.379606459758E+02   -0.57263E-03   -0.76007E-01  9856   0.496E+00    0.326E-01
DAV:   2    -0.379614990416E+02   -0.85307E-03   -0.23097E-02 11784   0.127E+00    0.189E-01
DAV:   3    -0.379609972174E+02    0.50182E-03   -0.14146E-03 13308   0.392E-01    0.845E-02
DAV:   4    -0.379608935046E+02    0.10371E-03   -0.43731E-04 12456   0.235E-01    0.170E-02
DAV:   5    -0.379609021199E+02   -0.86152E-05   -0.13638E-04 11220   0.122E-01    0.121E-02
DAV:   6    -0.379609022547E+02   -0.13488E-06   -0.12093E-05 12984   0.467E-02    0.790E-03
DAV:   7    -0.379609020710E+02    0.18369E-06   -0.22147E-06 12932   0.305E-02    0.414E-03
DAV:   8    -0.379609021380E+02   -0.66987E-07   -0.10543E-06 12828   0.144E-02    0.105E-03
DAV:   9    -0.379609021477E+02   -0.96638E-08   -0.28314E-07 11176   0.439E-03    0.730E-04
DAV:  10    -0.379609021513E+02   -0.36412E-08   -0.38240E-08 10092   0.232E-03
  14 F= -.37960902E+02 E0= -.37960596E+02  d E =-.828801E-03
 trial-energy change:   -0.000829  1 .order   -0.000829   -0.001252   -0.000407
 step:   1.6124(harm=  1.6124)  dis= 0.00687  next Energy=   -37.961001 (dE=-0.928E-03)
 bond charge predicted
       N       E                     dE             d eps       ncg     rms          rms(c)
DAV:   1    -0.379609431363E+02   -0.40989E-04   -0.17649E-01  9856   0.239E+00    0.157E-01
DAV:   2    -0.379611398409E+02   -0.19670E-03   -0.53395E-03 11840   0.608E-01    0.910E-02
DAV:   3    -0.379610224309E+02    0.11741E-03   -0.32142E-04 13204   0.183E-01    0.404E-02
DAV:   4    -0.379609989118E+02    0.23519E-04   -0.10075E-04 12332   0.111E-01    0.818E-03
DAV:   5    -0.379610008436E+02   -0.19318E-05   -0.31405E-05 11240   0.587E-02    0.586E-03
DAV:   6    -0.379610008830E+02   -0.39407E-07   -0.27959E-06 13128   0.225E-02    0.380E-03
DAV:   7    -0.379610008473E+02    0.35706E-07   -0.50024E-07 12904   0.143E-02    0.199E-03
DAV:   8    -0.379610008679E+02   -0.20548E-07   -0.23925E-07 12676   0.686E-03    0.506E-04
DAV:   9    -0.379610008692E+02   -0.12915E-08   -0.63616E-08 10660   0.215E-03
  15 F= -.37961001E+02 E0= -.37960691E+02  d E =-.927519E-03
 curvature:  -2.46 expect dE=-0.159E-02 dE for cont linesearch -0.120E-07
 trial: gam= 0.55771 g(F)=  0.544E-03 g(S)=  0.100E-03 ort = 0.414E-05 (trialstep = 0.119E+01)
 search vector abs. value=  0.174E-02
 bond charge predicted
       N       E                     dE             d eps       ncg     rms          rms(c)
DAV:   1    -0.379611129573E+02   -0.11209E-03   -0.47956E-01  9872   0.402E+00    0.270E-01
DAV:   2    -0.379618118250E+02   -0.69887E-03   -0.17850E-02 11860   0.110E+00    0.155E-01
DAV:   3    -0.379615310551E+02    0.28077E-03   -0.11736E-03 12624   0.304E-01    0.762E-02
DAV:   4    -0.379614386279E+02    0.92427E-04   -0.29572E-04 13052   0.204E-01    0.168E-02
DAV:   5    -0.379614434952E+02   -0.48672E-05   -0.10667E-04 11300   0.115E-01    0.102E-02
DAV:   6    -0.379614438635E+02   -0.36834E-06   -0.15445E-05 14308   0.527E-02    0.600E-03
DAV:   7    -0.379614437291E+02    0.13438E-06   -0.19436E-06 12216   0.279E-02    0.380E-03
DAV:   8    -0.379614437711E+02   -0.41958E-07   -0.97246E-07 12856   0.105E-02    0.135E-03
DAV:   9    -0.379614437472E+02    0.23828E-07   -0.21634E-07 12672   0.418E-03    0.576E-04
DAV:  10    -0.379614437470E+02    0.23465E-09   -0.73065E-08 10752   0.211E-03
  16 F= -.37961444E+02 E0= -.37961155E+02  d E =-.442878E-03
 trial-energy change:   -0.000443  1 .order   -0.000436   -0.000772   -0.000100
 step:   1.3590(harm=  1.3707)  dis= 0.00307  next Energy=   -37.961451 (dE=-0.450E-03)
 bond charge predicted
       N       E                     dE             d eps       ncg     rms          rms(c)
DAV:   1    -0.379614447418E+02   -0.99457E-06   -0.92937E-03  9876   0.560E-01    0.376E-02
DAV:   2    -0.379614582953E+02   -0.13553E-04   -0.34603E-04 11836   0.154E-01    0.216E-02
DAV:   3    -0.379614531850E+02    0.51103E-05   -0.23150E-05 12504   0.438E-02    0.106E-02
DAV:   4    -0.379614515353E+02    0.16496E-05   -0.58356E-06 12964   0.288E-02    0.234E-03
DAV:   5    -0.379614516667E+02   -0.13136E-06   -0.20835E-06 11272   0.160E-02    0.141E-03
DAV:   6    -0.379614516770E+02   -0.10313E-07   -0.29478E-07 14428   0.736E-03    0.830E-04
DAV:   7    -0.379614516746E+02    0.24297E-08   -0.36402E-08  9460   0.388E-03
  17 F= -.37961452E+02 E0= -.37961165E+02  d E =-.450805E-03
 curvature:  -1.84 expect dE=-0.299E-03 dE for cont linesearch -0.282E-07
 trial: gam= 0.24715 g(F)=  0.136E-03 g(S)=  0.265E-04 ort = 0.517E-05 (trialstep = 0.123E+01)
 search vector abs. value=  0.271E-03
 bond charge predicted
       N       E                     dE             d eps       ncg     rms          rms(c)
DAV:   1    -0.379615987226E+02   -0.14705E-03   -0.76413E-02  9884   0.169E+00    0.122E-01
DAV:   2    -0.379616299784E+02   -0.31256E-04   -0.30442E-03 11560   0.624E-01    0.633E-02
DAV:   3    -0.379615977530E+02    0.32225E-04   -0.25199E-04 12088   0.187E-01    0.308E-02
DAV:   4    -0.379615809062E+02    0.16847E-04   -0.47139E-05 14376   0.111E-01    0.712E-03
DAV:   5    -0.379615816167E+02   -0.71059E-06   -0.15595E-05 11076   0.411E-02    0.301E-03
DAV:   6    -0.379615817706E+02   -0.15384E-06   -0.17693E-06 11980   0.163E-02    0.224E-03
DAV:   7    -0.379615818132E+02   -0.42586E-07   -0.21741E-07 12756   0.107E-02    0.116E-03
DAV:   8    -0.379615818839E+02   -0.70733E-07   -0.87892E-08 11432   0.269E-03    0.266E-04
DAV:   9    -0.379615818908E+02   -0.69253E-08   -0.14807E-08  7228   0.178E-03
  18 F= -.37961582E+02 E0= -.37961293E+02  d E =-.130216E-03
 trial-energy change:   -0.000130  1 .order   -0.000131   -0.000201   -0.000062
 step:   1.8079(harm=  1.7712)  dis= 0.00251  next Energy=   -37.961596 (dE=-0.145E-03)
 bond charge predicted
       N       E                     dE             d eps       ncg     rms          rms(c)
DAV:   1    -0.379615995128E+02   -0.17629E-04   -0.17196E-02  9884   0.801E-01    0.577E-02
DAV:   2    -0.379616065551E+02   -0.70424E-05   -0.68343E-04 11544   0.296E-01    0.300E-02
DAV:   3    -0.379615991062E+02    0.74489E-05   -0.56838E-05 12172   0.888E-02    0.146E-02
DAV:   4    -0.379615952511E+02    0.38551E-05   -0.10566E-05 14392   0.526E-02    0.337E-03
DAV:   5    -0.379615953955E+02   -0.14439E-06   -0.35077E-06 11076   0.194E-02    0.143E-03
DAV:   6    -0.379615954415E+02   -0.45985E-07   -0.39281E-07 11984   0.765E-03    0.106E-03
DAV:   7    -0.379615954636E+02   -0.22134E-07   -0.47107E-08 10452   0.504E-03    0.550E-04
DAV:   8    -0.379615954957E+02   -0.32035E-07   -0.17799E-08  6664   0.128E-03    0.125E-04
DAV:   9    -0.379615954998E+02   -0.41346E-08   -0.54963E-09  5800   0.104E-03
  19 F= -.37961595E+02 E0= -.37961306E+02  d E =-.143825E-03
 curvature:  -1.46 expect dE=-0.120E-03 dE for cont linesearch -0.720E-07
 trial: gam= 0.53758 g(F)=  0.580E-04 g(S)=  0.238E-04 ort =-0.366E-05 (trialstep = 0.134E+01)
 search vector abs. value=  0.156E-03
 bond charge predicted
       N       E                     dE             d eps       ncg     rms          rms(c)
DAV:   1    -0.379617275069E+02   -0.13201E-03   -0.51777E-02  9960   0.143E+00    0.113E-01
DAV:   2    -0.379617066086E+02    0.20898E-04   -0.21763E-03 11804   0.564E-01    0.555E-02
DAV:   3    -0.379616717849E+02    0.34824E-04   -0.19880E-04 13420   0.169E-01    0.275E-02
DAV:   4    -0.379616581147E+02    0.13670E-04   -0.38615E-05 13372   0.848E-02    0.477E-03
DAV:   5    -0.379616590472E+02   -0.93246E-06   -0.12878E-05 10728   0.347E-02    0.287E-03
DAV:   6    -0.379616590397E+02    0.74551E-08   -0.10465E-06 12412   0.145E-02    0.209E-03
DAV:   7    -0.379616589617E+02    0.78021E-07   -0.19808E-07 13580   0.984E-03    0.751E-04
DAV:   8    -0.379616589361E+02    0.25582E-07   -0.64546E-08 11404   0.321E-03    0.242E-04
DAV:   9    -0.379616589364E+02   -0.25602E-09   -0.13386E-08  6092   0.137E-03
  20 F= -.37961659E+02 E0= -.37961373E+02  d E =-.634366E-04
 trial-energy change:   -0.000063  1 .order   -0.000067   -0.000107   -0.000027
 step:   2.0794(harm=  1.7862)  dis= 0.00171  next Energy=   -37.961666 (dE=-0.702E-04)
 bond charge predicted
       N       E                     dE             d eps       ncg     rms          rms(c)
DAV:   1    -0.379616800255E+02   -0.21089E-04   -0.15605E-02  9960   0.783E-01    0.621E-02
DAV:   2    -0.379616736284E+02    0.63970E-05   -0.65654E-04 11796   0.310E-01    0.304E-02
DAV:   3    -0.379616634043E+02    0.10224E-04   -0.60066E-05 13452   0.930E-02    0.151E-02
DAV:   4    -0.379616593942E+02    0.40101E-05   -0.11579E-05 13396   0.465E-02    0.262E-03
DAV:   5    -0.379616596861E+02   -0.29186E-06   -0.38792E-06 10736   0.190E-02    0.157E-03
DAV:   6    -0.379616596750E+02    0.11074E-07   -0.31504E-07 12412   0.796E-03    0.115E-03
DAV:   7    -0.379616596363E+02    0.38745E-07   -0.57084E-08 10796   0.538E-03    0.415E-04
DAV:   8    -0.379616596204E+02    0.15845E-07   -0.17990E-08  7096   0.181E-03    0.122E-04
DAV:   9    -0.379616596208E+02   -0.40609E-09   -0.67415E-09  5868   0.896E-04
  21 F= -.37961660E+02 E0= -.37961375E+02  d E =-.641210E-04
 curvature:  -0.98 expect dE=-0.687E-04 dE for cont linesearch -0.111E-05
 trial: gam= 0.96870 g(F)=  0.375E-04 g(S)=  0.323E-04 ort =-0.133E-04 (trialstep = 0.122E+01)
 search vector abs. value=  0.191E-03
 bond charge predicted
       N       E                     dE             d eps       ncg     rms          rms(c)
DAV:   1    -0.379616375208E+02    0.22100E-04   -0.57600E-02  9912   0.137E+00    0.666E-02
DAV:   2    -0.379617177982E+02   -0.80277E-04   -0.14153E-03 11196   0.331E-01    0.380E-02
DAV:   3    -0.379617060900E+02    0.11708E-04   -0.92153E-05 12656   0.107E-01    0.190E-02
DAV:   4    -0.379617001754E+02    0.59147E-05   -0.17251E-05 13172   0.613E-02    0.385E-03
DAV:   5    -0.379617005432E+02   -0.36782E-06   -0.61410E-06 10932   0.286E-02    0.216E-03
DAV:   6    -0.379617005942E+02   -0.51050E-07   -0.78881E-07 12116   0.111E-02    0.159E-03
DAV:   7    -0.379617006027E+02   -0.84519E-08   -0.10037E-07 10972   0.638E-03    0.952E-04
DAV:   8    -0.379617006288E+02   -0.26135E-07   -0.47360E-08 10692   0.242E-03    0.204E-04
DAV:   9    -0.379617006292E+02   -0.38244E-09   -0.13029E-08  6012   0.135E-03
  22 F= -.37961701E+02 E0= -.37961419E+02  d E =-.410084E-04
 trial-energy change:   -0.000041  1 .order   -0.000042   -0.000069   -0.000015
 step:   1.6391(harm=  1.5603)  dis= 0.00162  next Energy=   -37.961703 (dE=-0.435E-04)
 bond charge predicted
       N       E                     dE             d eps       ncg     rms          rms(c)
DAV:   1    -0.379616951311E+02    0.54978E-05   -0.67535E-03  9912   0.468E-01    0.228E-02
DAV:   2    -0.379617045464E+02   -0.94154E-05   -0.16545E-04 11200   0.113E-01    0.130E-02
DAV:   3    -0.379617030448E+02    0.15016E-05   -0.10716E-05 12736   0.361E-02    0.647E-03
DAV:   4    -0.379617023236E+02    0.72125E-06   -0.19978E-06 13236   0.209E-02    0.130E-03
DAV:   5    -0.379617023579E+02   -0.34358E-07   -0.71465E-07 10916   0.982E-03    0.741E-04
DAV:   6    -0.379617023670E+02   -0.90236E-08   -0.90381E-08 11388   0.378E-03
  23 F= -.37961702E+02 E0= -.37961421E+02  d E =-.427461E-04
 curvature:  -2.47 expect dE=-0.801E-04 dE for cont linesearch -0.166E-06
 trial: gam= 0.20552 g(F)=  0.277E-04 g(S)=  0.472E-05 ort =-0.358E-05 (trialstep = 0.130E+01)
 search vector abs. value=  0.390E-04
 bond charge predicted
       N       E                     dE             d eps       ncg     rms          rms(c)
DAV:   1    -0.379617192132E+02   -0.16855E-04   -0.12869E-02  9952   0.644E-01    0.391E-02
DAV:   2    -0.379617373027E+02   -0.18090E-04   -0.40528E-04 11936   0.158E-01    0.231E-02
DAV:   3    -0.379617295142E+02    0.77885E-05   -0.23024E-05 13608   0.554E-02    0.975E-03
DAV:   4    -0.379617280582E+02    0.14560E-05   -0.63757E-06 11576   0.364E-02    0.212E-03
DAV:   5    -0.379617282088E+02   -0.15056E-06   -0.18721E-06 11160   0.168E-02    0.129E-03
DAV:   6    -0.379617282122E+02   -0.34174E-08   -0.22540E-07 12212   0.830E-03    0.801E-04
DAV:   7    -0.379617282044E+02    0.78294E-08   -0.49282E-08  9852   0.356E-03
  24 F= -.37961728E+02 E0= -.37961444E+02  d E =-.258374E-04
 trial-energy change:   -0.000026  1 .order   -0.000026   -0.000041   -0.000010
 step:   1.7103(harm=  1.7260)  dis= 0.00083  next Energy=   -37.961730 (dE=-0.274E-04)
 bond charge predicted
       N       E                     dE             d eps       ncg     rms          rms(c)
DAV:   1    -0.379617289883E+02   -0.77606E-06   -0.12450E-03  9952   0.200E-01    0.121E-02
DAV:   2    -0.379617307286E+02   -0.17403E-05   -0.39191E-05 11944   0.487E-02    0.715E-03
DAV:   3    -0.379617299905E+02    0.73810E-06   -0.22100E-06 13588   0.160E-02    0.300E-03
DAV:   4    -0.379617298597E+02    0.13077E-06   -0.60635E-07 11576   0.105E-02    0.653E-04
DAV:   5    -0.379617298778E+02   -0.18113E-07   -0.17205E-07 11120   0.484E-03    0.396E-04
DAV:   6    -0.379617298770E+02    0.85993E-09   -0.17453E-08  6364   0.246E-03
  25 F= -.37961730E+02 E0= -.37961445E+02  d E =-.275100E-04
 curvature:  -1.06 expect dE=-0.115E-04 dE for cont linesearch -0.132E-08
 trial: gam= 0.31903 g(F)=  0.709E-05 g(S)=  0.370E-05 ort = 0.220E-06 (trialstep = 0.139E+01)
 search vector abs. value=  0.149E-04
 bond charge predicted
       N       E                     dE             d eps       ncg     rms          rms(c)
DAV:   1    -0.379617450338E+02   -0.15156E-04   -0.57615E-03 10876   0.508E-01    0.414E-02
DAV:   2    -0.379617415649E+02    0.34690E-05   -0.32512E-04 11272   0.208E-01    0.196E-02
DAV:   3    -0.379617382275E+02    0.33374E-05   -0.23776E-05 13140   0.608E-02    0.975E-03
DAV:   4    -0.379617365601E+02    0.16674E-05   -0.49120E-06 14088   0.335E-02    0.266E-03
DAV:   5    -0.379617366967E+02   -0.13661E-06   -0.19614E-06 10996   0.138E-02    0.983E-04
DAV:   6    -0.379617366981E+02   -0.13506E-08   -0.18997E-07 12184   0.539E-03    0.697E-04
DAV:   7    -0.379617366825E+02    0.15529E-07   -0.21150E-08  7316   0.324E-03    0.374E-04
DAV:   8    -0.379617366658E+02    0.16742E-07   -0.13062E-08  6296   0.118E-03    0.106E-04
DAV:   9    -0.379617366661E+02   -0.30423E-09   -0.54172E-09  5636   0.104E-03
  26 F= -.37961737E+02 E0= -.37961453E+02  d E =-.678915E-05
 trial-energy change:   -0.000007  1 .order   -0.000007   -0.000015    0.000001
 step:   1.2714(harm=  1.2747)  dis= 0.00036  next Energy=   -37.961737 (dE=-0.684E-05)
 bond charge predicted
       N       E                     dE             d eps       ncg     rms          rms(c)
DAV:   1    -0.379617368107E+02   -0.14493E-06   -0.39184E-05 10888   0.420E-02    0.341E-03
DAV:   2    -0.379617368098E+02    0.88039E-09   -0.22309E-06 11272   0.172E-02    0.163E-03
DAV:   3    -0.379617367555E+02    0.54364E-07   -0.16269E-07 13112   0.503E-03    0.808E-04
DAV:   4    -0.379617367254E+02    0.30062E-07   -0.29605E-08  9180   0.276E-03    0.227E-04
DAV:   5    -0.379617367191E+02    0.63319E-08   -0.16386E-08  6644   0.127E-03
  27 F= -.37961737E+02 E0= -.37961453E+02  d E =-.684213E-05
 curvature:  -0.87 expect dE=-0.433E-05 dE for cont linesearch -0.541E-11
 trial: gam= 0.47733 g(F)=  0.434E-05 g(S)=  0.617E-06 ort = 0.961E-08 (trialstep = 0.136E+01)
 search vector abs. value=  0.836E-05
 bond charge predicted
       N       E                     dE             d eps       ncg     rms          rms(c)
DAV:   1    -0.379617349356E+02    0.17898E-05   -0.33558E-03  9892   0.331E-01    0.144E-02
DAV:   2    -0.379617414795E+02   -0.65439E-05   -0.92458E-05 11132   0.758E-02    0.813E-03
DAV:   3    -0.379617409702E+02    0.50936E-06   -0.52977E-06 12272   0.235E-02    0.457E-03
DAV:   4    -0.379617406014E+02    0.36878E-06   -0.11503E-06 12556   0.147E-02    0.141E-03
DAV:   5    -0.379617405727E+02    0.28713E-07   -0.33799E-07 11332   0.668E-03    0.583E-04
DAV:   6    -0.379617405732E+02   -0.57116E-09   -0.70264E-08 11124   0.240E-03
  28 F= -.37961741E+02 E0= -.37961457E+02  d E =-.385415E-05
 trial-energy change:   -0.000004  1 .order   -0.000004   -0.000007   -0.000001
 step:   1.7870(harm=  1.6842)  dis= 0.00044  next Energy=   -37.961741 (dE=-0.405E-05)
 bond charge predicted
       N       E                     dE             d eps       ncg     rms          rms(c)
DAV:   1    -0.379617401631E+02    0.40960E-06   -0.32506E-04  9892   0.103E-01    0.454E-03
DAV:   2    -0.379617408099E+02   -0.64685E-06   -0.90273E-06 11184   0.236E-02    0.253E-03
DAV:   3    -0.379617407341E+02    0.75827E-07   -0.51633E-07 12312   0.738E-03    0.143E-03
DAV:   4    -0.379617406874E+02    0.46689E-07   -0.10859E-07 12280   0.461E-03    0.438E-04
DAV:   5    -0.379617406765E+02    0.10941E-07   -0.31308E-08  9308   0.217E-03    0.175E-04
DAV:   6    -0.379617406763E+02    0.18008E-09   -0.63904E-09  5712   0.865E-04
  29 F= -.37961741E+02 E0= -.37961457E+02  d E =-.395719E-05
 curvature:  -1.27 expect dE=-0.235E-05 dE for cont linesearch -0.119E-07
 trial: gam= 0.41439 g(F)=  0.155E-05 g(S)=  0.295E-06 ort =-0.280E-06 (trialstep = 0.145E+01)
 search vector abs. value=  0.305E-05
 bond charge predicted
       N       E                     dE             d eps       ncg     rms          rms(c)
DAV:   1    -0.379617402897E+02    0.38678E-06   -0.12516E-03  9856   0.198E-01    0.123E-02
DAV:   2    -0.379617425700E+02   -0.22803E-05   -0.43393E-05 11912   0.505E-02    0.732E-03
DAV:   3    -0.379617420025E+02    0.56750E-06   -0.19815E-06 13168   0.149E-02    0.346E-03
DAV:   4    -0.379617418769E+02    0.12551E-06   -0.66091E-07 13256   0.108E-02    0.780E-04
DAV:   5    -0.379617419094E+02   -0.32473E-07   -0.20893E-07 10824   0.536E-03    0.448E-04
DAV:   6    -0.379617419114E+02   -0.19641E-08   -0.22795E-08  7352   0.242E-03
  30 F= -.37961742E+02 E0= -.37961459E+02  d E =-.123511E-05
 trial-energy change:   -0.000001  1 .order   -0.000001   -0.000003    0.000000
 step:   1.2963(harm=  1.2433)  dis= 0.00023  next Energy=   -37.961742 (dE=-0.126E-05)
 bond charge predicted
       N       E                     dE             d eps       ncg     rms          rms(c)
DAV:   1    -0.379617419230E+02   -0.13581E-07   -0.13561E-05  9856   0.207E-02    0.126E-03
DAV:   2    -0.379617419437E+02   -0.20680E-07   -0.46031E-07 11972   0.522E-03    0.754E-04
DAV:   3    -0.379617419251E+02    0.18567E-07   -0.18399E-08  7636   0.150E-03    0.356E-04
DAV:   4    -0.379617419175E+02    0.76493E-08   -0.83653E-09  5168   0.121E-03
  31 F= -.37961742E+02 E0= -.37961459E+02  d E =-.124119E-05
 curvature:  -1.02 expect dE=-0.712E-06 dE for cont linesearch -0.606E-09
 trial: gam= 0.33103 g(F)=  0.434E-06 g(S)=  0.262E-06 ort =-0.425E-07 (trialstep = 0.142E+01)
 search vector abs. value=  0.100E-05
 bond charge predicted
       N       E                     dE             d eps       ncg     rms          rms(c)
DAV:   1    -0.379617428171E+02   -0.89202E-06   -0.35457E-04  9944   0.110E-01    0.835E-03
DAV:   2    -0.379617429535E+02   -0.13636E-06   -0.12391E-05 11936   0.319E-02    0.487E-03
DAV:   3    -0.379617425117E+02    0.44185E-06   -0.89278E-07 13348   0.111E-02    0.190E-03
DAV:   4    -0.379617424600E+02    0.51655E-07   -0.30777E-07 11916   0.613E-03    0.379E-04
DAV:   5    -0.379617424670E+02   -0.70459E-08   -0.81043E-08 10768   0.313E-03
  32 F= -.37961742E+02 E0= -.37961459E+02  d E =-.549582E-06
 trial-energy change:   -0.000001  1 .order   -0.000001   -0.000001   -0.000000
 step:   1.6410(harm=  1.6410)  dis= 0.00015  next Energy=   -37.961742 (dE=-0.560E-06)
 bond charge predicted
       N       E                     dE             d eps       ncg     rms          rms(c)
DAV:   1    -0.379617424930E+02   -0.32971E-07   -0.88510E-06  9980   0.173E-02    0.136E-03
DAV:   2    -0.379617425019E+02   -0.89126E-08   -0.31128E-07 12040   0.499E-03    0.774E-04
DAV:   3    -0.379617424881E+02    0.13781E-07   -0.16806E-08  7764   0.169E-03    0.297E-04
DAV:   4    -0.379617424875E+02    0.58571E-09   -0.99028E-09  5524   0.106E-03
  33 F= -.37961742E+02 E0= -.37961459E+02  d E =-.570053E-06
 curvature:  -1.21 expect dE=-0.623E-06 dE for cont linesearch -0.686E-09
 trial: gam= 0.69393 g(F)=  0.438E-06 g(S)=  0.790E-07 ort = 0.239E-07 (trialstep = 0.142E+01)
 search vector abs. value=  0.103E-05
 bond charge predicted
       N       E                     dE             d eps       ncg     rms          rms(c)
DAV:   1    -0.379617434405E+02   -0.95243E-06   -0.36727E-04  9884   0.109E-01    0.875E-03
DAV:   2    -0.379617435451E+02   -0.10452E-06   -0.11690E-05 11328   0.296E-02    0.515E-03
DAV:   3    -0.379617430705E+02    0.47455E-06   -0.92671E-07 14212   0.973E-03    0.156E-03
DAV:   4    -0.379617430469E+02    0.23597E-07   -0.25235E-07 11424   0.518E-03    0.349E-04
DAV:   5    -0.379617430495E+02   -0.26298E-08   -0.48668E-08 10512   0.260E-03
  34 F= -.37961743E+02 E0= -.37961459E+02  d E =-.562021E-06
 trial-energy change:   -0.000001  1 .order   -0.000001   -0.000001   -0.000000
 step:   3.1024(harm=  3.1024)  dis= 0.00035  next Energy=   -37.961743 (dE=-0.827E-06)
 bond charge predicted
       N       E                     dE             d eps       ncg     rms          rms(c)
DAV:   1    -0.379617438547E+02   -0.80777E-06   -0.51713E-04  9884   0.130E-01    0.104E-02
DAV:   2    -0.379617439940E+02   -0.13931E-06   -0.16445E-05 11332   0.351E-02    0.612E-03
DAV:   3    -0.379617433328E+02    0.66119E-06   -0.13099E-06 14324   0.112E-02    0.184E-03
DAV:   4    -0.379617433011E+02    0.31738E-07   -0.35030E-07 11232   0.562E-03    0.415E-04
DAV:   5    -0.379617433042E+02   -0.30946E-08   -0.66960E-08 10752   0.290E-03
  35 F= -.37961743E+02 E0= -.37961459E+02  d E =-.816645E-06
 curvature:  -3.00 expect dE=-0.166E-05 dE for cont linesearch -0.163E-08
 trial: gam= 1.10072 g(F)=  0.451E-06 g(S)=  0.100E-06 ort = 0.237E-07 (trialstep = 0.978E+00)
 search vector abs. value=  0.185E-05
 bond charge predicted
       N       E                     dE             d eps       ncg     rms          rms(c)
DAV:   1    -0.379617447171E+02   -0.14160E-05   -0.29219E-04  9992   0.102E-01    0.982E-03
DAV:   2    -0.379617443715E+02    0.34563E-06   -0.12136E-05 11744   0.388E-02    0.557E-03
DAV:   3    -0.379617438323E+02    0.53922E-06   -0.11931E-06 13416   0.134E-02    0.230E-03
DAV:   4    -0.379617437249E+02    0.10738E-06   -0.31228E-07 12648   0.755E-03    0.367E-04
DAV:   5    -0.379617437323E+02   -0.74388E-08   -0.10800E-07 10588   0.357E-03    0.293E-04
DAV:   6    -0.379617437346E+02   -0.22801E-08   -0.79945E-09  5720   0.168E-03
  36 F= -.37961744E+02 E0= -.37961459E+02  d E =-.430424E-06
 trial-energy change:   -0.000000  1 .order   -0.000000   -0.000001   -0.000000
 step:   2.2201(harm=  2.2201)  dis= 0.00029  next Energy=   -37.961744 (dE=-0.641E-06)
 bond charge predicted
       N       E                     dE             d eps       ncg     rms          rms(c)
DAV:   1    -0.379617455184E+02   -0.17861E-05   -0.47183E-04  9992   0.130E-01    0.125E-02
DAV:   2    -0.379617449453E+02    0.57309E-06   -0.19641E-05 11736   0.497E-02    0.708E-03
DAV:   3    -0.379617440975E+02    0.84773E-06   -0.19488E-06 13388   0.175E-02    0.293E-03
DAV:   4    -0.379617439305E+02    0.16705E-06   -0.51442E-07 12752   0.101E-02    0.479E-04
DAV:   5    -0.379617439430E+02   -0.12461E-07   -0.17297E-07 10700   0.474E-03    0.375E-04
DAV:   6    -0.379617439458E+02   -0.28281E-08   -0.14929E-08  6272   0.214E-03
  37 F= -.37961744E+02 E0= -.37961459E+02  d E =-.641616E-06
 curvature:  -3.57 expect dE=-0.213E-05 dE for cont linesearch -0.284E-09
 trial: gam= 1.12926 g(F)=  0.253E-06 g(S)=  0.343E-06 ort = 0.121E-07 (trialstep = 0.761E+00)
 search vector abs. value=  0.299E-05
 bond charge predicted
       N       E                     dE             d eps       ncg     rms          rms(c)
DAV:   1    -0.379617450793E+02   -0.11363E-05   -0.28021E-04  9960   0.103E-01    0.974E-03
DAV:   2    -0.379617447715E+02    0.30776E-06   -0.12753E-05 11344   0.409E-02    0.548E-03
DAV:   3    -0.379617444645E+02    0.30702E-06   -0.12423E-06 13868   0.137E-02    0.242E-03
DAV:   4    -0.379617443942E+02    0.70270E-07   -0.29515E-07 12752   0.703E-03    0.352E-04
DAV:   5    -0.379617444029E+02   -0.86775E-08   -0.97267E-08 10652   0.317E-03
  38 F= -.37961744E+02 E0= -.37961459E+02  d E =-.457130E-06
 trial-energy change:   -0.000000  1 .order   -0.000000   -0.000000   -0.000000
 step:   2.8620(harm=  2.8620)  dis= 0.00040  next Energy=   -37.961745 (dE=-0.874E-06)
 bond charge predicted
       N       E                     dE             d eps       ncg     rms          rms(c)
DAV:   1    -0.379617504138E+02   -0.60196E-05   -0.21355E-03  9960   0.283E-01    0.269E-02
DAV:   2    -0.379617482487E+02    0.21652E-05   -0.96962E-05 11320   0.113E-01    0.151E-02
DAV:   3    -0.379617455082E+02    0.27404E-05   -0.95357E-06 13892   0.383E-02    0.667E-03
DAV:   4    -0.379617448255E+02    0.68274E-06   -0.22429E-06 12708   0.197E-02    0.980E-04
DAV:   5    -0.379617448874E+02   -0.61949E-07   -0.73771E-07 10768   0.894E-03    0.727E-04
DAV:   6    -0.379617448809E+02    0.65770E-08   -0.63603E-08  9716   0.327E-03
  39 F= -.37961745E+02 E0= -.37961460E+02  d E =-.935085E-06
 curvature:  -7.01 expect dE=-0.876E-05 dE for cont linesearch -0.304E-07
 trial: gam= 2.10968 g(F)=  0.807E-06 g(S)=  0.443E-06 ort =-0.114E-06 (trialstep = 0.251E+00)
 search vector abs. value=  0.141E-04
 bond charge predicted
       N       E                     dE             d eps       ncg     rms          rms(c)
DAV:   1    -0.379617453376E+02   -0.45018E-06   -0.14855E-04  9956   0.694E-02    0.585E-03
DAV:   2    -0.379617453536E+02   -0.15934E-07   -0.46816E-06 11588   0.193E-02    0.344E-03
DAV:   3    -0.379617451326E+02    0.22097E-06   -0.37282E-07 15084   0.736E-03    0.860E-04
DAV:   4    -0.379617451315E+02    0.11360E-08   -0.11347E-07 10688   0.335E-03    0.234E-04
DAV:   5    -0.379617451328E+02   -0.13915E-08   -0.15116E-08  5988   0.144E-03
  40 F= -.37961745E+02 E0= -.37961460E+02  d E =-.251981E-06
 ZBRENT: can't locate minimum, use default step
 trial-energy change:   -0.000000  1 .order   -0.000000   -0.000000   -0.000000
 step:   1.0034(harm=  2.7664)  dis= 0.00035  next Energy=   -37.961746 (dE=-0.140E-05)
 bond charge predicted
       N       E                     dE             d eps       ncg     rms          rms(c)
DAV:   1    -0.379617474674E+02   -0.23359E-05   -0.13354E-03  9952   0.208E-01    0.174E-02
DAV:   2    -0.379617475834E+02   -0.11598E-06   -0.41859E-05 11576   0.576E-02    0.103E-02
DAV:   3    -0.379617456801E+02    0.19033E-05   -0.33335E-06 14884   0.192E-02    0.244E-03
DAV:   4    -0.379617456780E+02    0.20627E-08   -0.97869E-07 10700   0.881E-03    0.683E-04
DAV:   5    -0.379617456871E+02   -0.90213E-08   -0.13386E-07 11672   0.382E-03    0.537E-04
DAV:   6    -0.379617456898E+02   -0.27121E-08   -0.91624E-09  6028   0.223E-03
  41 F= -.37961746E+02 E0= -.37961460E+02  d E =-.808900E-06
 curvature:  -9.80 expect dE=-0.614E-05 dE for cont linesearch -0.105E-06
 ZBRENT: increasing intervall
 opt :   2.5084  next Energy=   -37.961745 (dE=-0.598E-06)
 bond charge predicted
       N       E                     dE             d eps       ncg     rms          rms(c)
DAV:   1    -0.379617494989E+02   -0.38119E-05   -0.53408E-03  9952   0.416E-01    0.348E-02
DAV:   2    -0.379617498856E+02   -0.38674E-06   -0.16728E-04 11584   0.115E-01    0.205E-02
DAV:   3    -0.379617423193E+02    0.75663E-05   -0.13239E-05 15092   0.373E-02    0.482E-03
DAV:   4    -0.379617423081E+02    0.11273E-07   -0.39205E-06 10704   0.163E-02    0.137E-03
DAV:   5    -0.379617423411E+02   -0.33055E-07   -0.49704E-07 11840   0.730E-03    0.106E-03
DAV:   6    -0.379617423467E+02   -0.55556E-08   -0.35319E-08  8932   0.416E-03
  42 F= -.37961742E+02 E0= -.37961457E+02  d E =0.253420E-05
 curvature:  19.62 expect dE= 0.203E-04 dE for cont linesearch  0.658E-06
 ZBRENT: bracketing found
 ZBRENT: interpolating
 opt :   1.5477  next Energy=   -37.961746 (dE=-0.915E-06)
 bond charge predicted
       N       E                     dE             d eps       ncg     rms          rms(c)
DAV:   1    -0.379617454766E+02   -0.31355E-05   -0.21738E-03  9956   0.265E-01    0.222E-02
DAV:   2    -0.379617455876E+02   -0.11106E-06   -0.68164E-05 11552   0.735E-02    0.131E-02
DAV:   3    -0.379617425852E+02    0.30025E-05   -0.53734E-06 15020   0.235E-02    0.308E-03
DAV:   4    -0.379617425636E+02    0.21599E-07   -0.15814E-06 10676   0.100E-02    0.860E-04
DAV:   5    -0.379617425779E+02   -0.14360E-07   -0.19266E-07 11808   0.453E-03    0.670E-04
DAV:   6    -0.379617425699E+02    0.80900E-08   -0.12755E-08  6104   0.257E-03
  43 F= -.37961743E+02 E0= -.37961457E+02  d E =0.231102E-05
 curvature:  -3.16 expect dE=-0.182E-05 dE for cont linesearch -0.159E-07
 trial: gam= 0.12712 g(F)=  0.298E-06 g(S)=  0.277E-06 ort = 0.266E-06 (trialstep = 0.510E+00)
 search vector abs. value=  0.870E-06
 bond charge predicted
       N       E                     dE             d eps       ncg     rms          rms(c)
DAV:   1    -0.379617435962E+02   -0.10183E-05   -0.41221E-05 13196   0.633E-02    0.693E-03
DAV:   2    -0.379617430244E+02    0.57179E-06   -0.52028E-06 13112   0.331E-02    0.274E-03
DAV:   3    -0.379617428748E+02    0.14960E-06   -0.39364E-07 14832   0.854E-03    0.133E-03
DAV:   4    -0.379617427991E+02    0.75693E-07   -0.64029E-08 13452   0.425E-03    0.350E-04
DAV:   5    -0.379617427855E+02    0.13667E-07   -0.27213E-08  7748   0.189E-03    0.125E-04
DAV:   6    -0.379617427867E+02   -0.12678E-08   -0.44654E-09  5264   0.762E-04
  44 F= -.37961743E+02 E0= -.37961457E+02  d E =-.216874E-06
 trial-energy change:   -0.000000  1 .order   -0.000000   -0.000000   -0.000000
 step:   1.0170(harm=  1.0170)  dis= 0.00006  next Energy=   -37.961743 (dE=-0.309E-06)
 bond charge predicted
       N       E                     dE             d eps       ncg     rms          rms(c)
DAV:   1    -0.379617436672E+02   -0.88177E-06   -0.40691E-05 13220   0.627E-02    0.687E-03
DAV:   2    -0.379617431105E+02    0.55675E-06   -0.50747E-06 13136   0.327E-02    0.272E-03
DAV:   3    -0.379617429621E+02    0.14834E-06   -0.38539E-07 14868   0.848E-03    0.132E-03
DAV:   4    -0.379617428886E+02    0.73534E-07   -0.62409E-08 13356   0.423E-03    0.343E-04
DAV:   5    -0.379617428756E+02    0.13052E-07   -0.27313E-08  7784   0.187E-03    0.125E-04
DAV:   6    -0.379617428762E+02   -0.62892E-09   -0.44255E-09  5344   0.756E-04
  45 F= -.37961743E+02 E0= -.37961457E+02  d E =-.306334E-06
 curvature:  -0.73 expect dE=-0.174E-06 dE for cont linesearch -0.134E-08
 trial: gam= 0.36617 g(F)=  0.176E-06 g(S)=  0.625E-07 ort = 0.400E-07 (trialstep = 0.612E+00)
 search vector abs. value=  0.385E-06
 bond charge predicted
       N       E                     dE             d eps       ncg     rms          rms(c)
DAV:   1    -0.379617430000E+02   -0.12449E-06   -0.29362E-05  9924   0.294E-02    0.145E-03
DAV:   2    -0.379617430188E+02   -0.18742E-07   -0.51466E-07 11940   0.677E-03    0.870E-04
DAV:   3    -0.379617430277E+02   -0.88662E-08   -0.41646E-08 10924   0.241E-03
  46 F= -.37961743E+02 E0= -.37961457E+02  d E =-.151466E-06
 ZBRENT: can't locate minimum, use default step
 trial-energy change:   -0.000000  1 .order   -0.000000   -0.000000   -0.000000
 step:   2.4463(harm=  4.5624)  dis= 0.00015  next Energy=   -37.961743 (dE=-0.579E-06)
 bond charge predicted
       N       E                     dE             d eps       ncg     rms          rms(c)
DAV:   1    -0.379617464138E+02   -0.33950E-05   -0.26398E-04  9936   0.879E-02    0.440E-03
DAV:   2    -0.379617465603E+02   -0.14653E-06   -0.45081E-06 11948   0.199E-02    0.261E-03
DAV:   3    -0.379617465243E+02    0.35977E-07   -0.39370E-07 13416   0.711E-03    0.107E-03
DAV:   4    -0.379617465144E+02    0.99089E-08   -0.78955E-08 11132   0.391E-03
  47 F= -.37961747E+02 E0= -.37961461E+02  d E =-.363824E-05
 curvature:  -2.47 expect dE=-0.659E-06 dE for cont linesearch -0.613E-09
 trial: gam= 1.30068 g(F)=  0.201E-06 g(S)=  0.663E-07 ort =-0.978E-08 (trialstep = 0.422E+00)
 search vector abs. value=  0.893E-06
 bond charge predicted
       N       E                     dE             d eps       ncg     rms          rms(c)
DAV:   1    -0.379617466719E+02   -0.14754E-06   -0.31690E-05 10140   0.342E-02    0.255E-03
DAV:   2    -0.379617466623E+02    0.96079E-08   -0.11277E-06 11444   0.133E-02    0.118E-03
DAV:   3    -0.379617466220E+02    0.40259E-07   -0.93171E-08 13156   0.374E-03    0.589E-04
DAV:   4    -0.379617465994E+02    0.22651E-07   -0.12355E-08  6096   0.191E-03    0.141E-04
DAV:   5    -0.379617465939E+02    0.54379E-08   -0.99298E-09  5632   0.980E-04
  48 F= -.37961747E+02 E0= -.37961461E+02  d E =-.794935E-07
 trial-energy change:   -0.000000  1 .order   -0.000000   -0.000000   -0.000000
 step:   1.6855(harm=  1.6855)  dis= 0.00016  next Energy=   -37.961747 (dE=-0.214E-06)
 bond charge predicted
       N       E                     dE             d eps       ncg     rms          rms(c)
DAV:   1    -0.379617471948E+02   -0.59545E-06   -0.28426E-04 10112   0.102E-01    0.776E-03
DAV:   2    -0.379617470081E+02    0.18667E-06   -0.10147E-05 11416   0.402E-02    0.352E-03
DAV:   3    -0.379617468010E+02    0.20711E-06   -0.85144E-07 13716   0.114E-02    0.175E-03
DAV:   4    -0.379617466970E+02    0.10399E-06   -0.14958E-07 14024   0.568E-03    0.396E-04
DAV:   5    -0.379617466867E+02    0.10284E-07   -0.55546E-08 10324   0.222E-03    0.175E-04
DAV:   6    -0.379617466879E+02   -0.11141E-08   -0.51824E-09  5788   0.974E-04
  49 F= -.37961747E+02 E0= -.37961460E+02  d E =-.173434E-06
 curvature:  -2.96 expect dE=-0.487E-06 dE for cont linesearch -0.970E-09
 trial: gam= 0.47297 g(F)=  0.106E-06 g(S)=  0.589E-07 ort =-0.171E-07 (trialstep = 0.675E+00)
 search vector abs. value=  0.348E-06
 bond charge predicted
       N       E                     dE             d eps       ncg     rms          rms(c)
DAV:   1    -0.379617467505E+02   -0.63758E-07   -0.29966E-05 10144   0.302E-02    0.155E-03
DAV:   2    -0.379617467980E+02   -0.47449E-07   -0.72570E-07 12912   0.688E-03    0.881E-04
DAV:   3    -0.379617467838E+02    0.14109E-07   -0.28024E-08  8976   0.224E-03    0.369E-04
DAV:   4    -0.379617467836E+02    0.23556E-09   -0.10785E-08  5568   0.177E-03
  50 F= -.37961747E+02 E0= -.37961460E+02  d E =-.957475E-07
 trial-energy change:   -0.000000  1 .order   -0.000000   -0.000000   -0.000000
 step:   1.9352(harm=  1.9352)  dis= 0.00010  next Energy=   -37.961747 (dE=-0.151E-06)
 bond charge predicted
       N       E                     dE             d eps       ncg     rms          rms(c)
DAV:   1    -0.379617467560E+02    0.27862E-07   -0.10454E-04 10124   0.564E-02    0.288E-03
DAV:   2    -0.379617469082E+02   -0.15219E-06   -0.25254E-06 12904   0.127E-02    0.163E-03
DAV:   3    -0.379617468627E+02    0.45443E-07   -0.10291E-07 12536   0.389E-03    0.674E-04
DAV:   4    -0.379617468593E+02    0.34611E-08   -0.32335E-08  9028   0.275E-03
  51 F= -.37961747E+02 E0= -.37961461E+02  d E =-.171405E-06
 curvature:  -2.15 expect dE=-0.260E-06 dE for cont linesearch -0.417E-09
 trial: gam= 0.60960 g(F)=  0.888E-07 g(S)=  0.321E-07 ort = 0.821E-08 (trialstep = 0.927E+00)
 search vector abs. value=  0.260E-06
 bond charge predicted
       N       E                     dE             d eps       ncg     rms          rms(c)
DAV:   1    -0.379617469344E+02   -0.71640E-07   -0.42450E-05 10064   0.421E-02    0.344E-03
DAV:   2    -0.379617469273E+02    0.71041E-08   -0.23390E-06 11964   0.177E-02    0.172E-03
DAV:   3    -0.379617469390E+02   -0.11780E-07   -0.19531E-07 12684   0.514E-03    0.867E-04
DAV:   4    -0.379617469438E+02   -0.47380E-08   -0.29650E-08  8848   0.273E-03
  52 F= -.37961747E+02 E0= -.37961461E+02  d E =-.845143E-07
 trial-energy change:   -0.000000  1 .order   -0.000000   -0.000000   -0.000000
 step:   1.0508(harm=  1.0508)  dis= 0.00004  next Energy=   -37.961747 (dE=-0.661E-07)
 bond charge predicted
       N       E                     dE             d eps       ncg     rms          rms(c)
DAV:   1    -0.379617469493E+02   -0.10296E-07   -0.77159E-07 10164   0.597E-03    0.485E-04
DAV:   2    -0.379617469471E+02    0.22319E-08   -0.41449E-08 10320   0.242E-03
  53 F= -.37961747E+02 E0= -.37961461E+02  d E =-.878408E-07
 curvature:  -1.09 expect dE=-0.985E-07 dE for cont linesearch -0.512E-12
 trial: gam= 0.74305 g(F)=  0.164E-07 g(S)=  0.742E-07 ort =-0.350E-09 (trialstep = 0.952E+00)
 search vector abs. value=  0.234E-06
 reached required accuracy - stopping structural energy minimisation
 writing wavefunctions
Thu Jan  6 03:08:42 CST 2022
