Sun Mar  6 20:24:27 CST 2022
 running on   48 total cores
 distrk:  each k-point on   48 cores,    1 groups
 distr:  one band on   24 cores,    2 groups
 using from now: INCAR     
 vasp.5.3.5 31Mar14 (build Jan 11 2016 19:50:55) complex                        
  
 POSCAR found type information on POSCAR  B  C  Na
 POSCAR found :  3 types and       9 ions
 scaLAPACK will be used

 ----------------------------------------------------------------------------- 
|                                                                             |
|           W    W    AA    RRRRR   N    N  II  N    N   GGGG   !!!           |
|           W    W   A  A   R    R  NN   N  II  NN   N  G    G  !!!           |
|           W    W  A    A  R    R  N N  N  II  N N  N  G       !!!           |
|           W WW W  AAAAAA  RRRRR   N  N N  II  N  N N  G  GGG   !            |
|           WW  WW  A    A  R   R   N   NN  II  N   NN  G    G                |
|           W    W  A    A  R    R  N    N  II  N    N   GGGG   !!!           |
|                                                                             |
|      For optimal performance we recommend to set                            |
|        NCORE= 4 - approx SQRT( number of cores)                             |
|      NCORE specifies how many cores store one orbital (NPAR=cpu/NCORE).     |
|      This setting can  greatly improve the performance of VASP for DFT.     |
|      The default, NPAR=number of cores might be grossly inefficient         |
|      on modern multi-core architectures or massively parallel machines.     |
|      Do your own testing !!!!                                               |
|      Unfortunately you need to use the default for GW and RPA calculations. |
|      (for HF NCORE is supported but not extensively tested yet)             |
|                                                                             |
 ----------------------------------------------------------------------------- 

 LDA part: xc-table for Pade appr. of Perdew
 POSCAR, INCAR and KPOINTS ok, starting setup
 WARNING: small aliasing (wrap around) errors must be expected
 FFT: planning ...
 WAVECAR not read
 entering main loop
       N       E                     dE             d eps       ncg     rms          rms(c)
DAV:   1     0.281422890703E+03    0.28142E+03   -0.12139E+04   448   0.872E+02
DAV:   2    -0.134576886432E+02   -0.29488E+03   -0.28490E+03   584   0.239E+02
DAV:   3    -0.717746897713E+02   -0.58317E+02   -0.58049E+02   440   0.111E+02
DAV:   4    -0.743424514364E+02   -0.25678E+01   -0.25448E+01   512   0.316E+01
DAV:   5    -0.744271606403E+02   -0.84709E-01   -0.84538E-01   528   0.537E+00    0.134E+01
DAV:   6    -0.676449036599E+02    0.67823E+01   -0.75978E+00   488   0.130E+01    0.742E+00
DAV:   7    -0.650125212122E+02    0.26324E+01   -0.83656E+00   496   0.129E+01    0.242E+00
DAV:   8    -0.648386695317E+02    0.17385E+00   -0.53538E-01   488   0.401E+00    0.113E+00
DAV:   9    -0.647408497044E+02    0.97820E-01   -0.25379E-01   464   0.177E+00    0.544E-01
DAV:  10    -0.647425707239E+02   -0.17210E-02   -0.61349E-02   456   0.797E-01    0.316E-01
DAV:  11    -0.647364777259E+02    0.60930E-02   -0.17410E-02   496   0.456E-01    0.154E-01
DAV:  12    -0.647363180997E+02    0.15963E-03   -0.47194E-03   464   0.338E-01    0.862E-02
DAV:  13    -0.647390241623E+02   -0.27061E-02   -0.32898E-03   488   0.223E-01    0.686E-02
DAV:  14    -0.647417738833E+02   -0.27497E-02   -0.20632E-03   448   0.168E-01    0.453E-02
DAV:  15    -0.647436265676E+02   -0.18527E-02   -0.10115E-03   392   0.114E-01    0.297E-02
DAV:  16    -0.647448263729E+02   -0.11998E-02   -0.38436E-04   352   0.576E-02    0.267E-02
DAV:  17    -0.647454013030E+02   -0.57493E-03   -0.24071E-04   320   0.456E-02    0.913E-03
DAV:  18    -0.647456945540E+02   -0.29325E-03   -0.41417E-05   312   0.299E-02    0.616E-03
DAV:  19    -0.647458766851E+02   -0.18213E-03   -0.32084E-05   320   0.198E-02    0.433E-03
DAV:  20    -0.647459256060E+02   -0.48921E-04   -0.94062E-06   336   0.121E-02
   1 F= -.64745926E+02 E0= -.64690261E+02  d E =-.647459E+02
 curvature:   0.00 expect dE= 0.000E+00 dE for cont linesearch  0.000E+00
 trial: gam= 0.00000 g(F)=  0.290E+00 g(S)=  0.581E-01 ort = 0.000E+00 (trialstep = 0.100E+01)
 search vector abs. value=  0.348E+00
 bond charge predicted
       N       E                     dE             d eps       ncg     rms          rms(c)
DAV:   1    -0.647842511605E+02   -0.38374E-01   -0.46290E+01   416   0.462E+01    0.229E+00
DAV:   2    -0.647427711099E+02    0.41480E-01   -0.12715E+00   504   0.757E+00    0.144E+00
DAV:   3    -0.646910891466E+02    0.51682E-01   -0.14341E-01   472   0.255E+00    0.690E-01
DAV:   4    -0.646815022331E+02    0.95869E-02   -0.51002E-02   440   0.136E+00    0.329E-01
DAV:   5    -0.646804315823E+02    0.10707E-02   -0.10151E-02   456   0.576E-01    0.147E-01
DAV:   6    -0.646804188651E+02    0.12717E-04   -0.87812E-04   520   0.182E-01
   2 F= -.64680419E+02 E0= -.64650717E+02  d E =0.655067E-01
 trial-energy change:    0.065507  1 .order    0.119418   -0.348258    0.587093
 step:   0.4582(harm=  0.3723)  dis= 0.02207  next Energy=   -64.830893 (dE=-0.850E-01)
 bond charge predicted
       N       E                     dE             d eps       ncg     rms          rms(c)
DAV:   1    -0.648531459543E+02   -0.17271E+00   -0.13010E+01   416   0.248E+01    0.118E+00
DAV:   2    -0.648489006932E+02    0.42453E-02   -0.34789E-01   480   0.395E+00    0.756E-01
DAV:   3    -0.648374668787E+02    0.11434E-01   -0.40130E-02   512   0.122E+00    0.381E-01
DAV:   4    -0.648338800509E+02    0.35868E-02   -0.20282E-02   448   0.785E-01    0.159E-01
DAV:   5    -0.648334238069E+02    0.45624E-03   -0.33354E-03   416   0.306E-01    0.633E-02
DAV:   6    -0.648333907491E+02    0.33058E-04   -0.29403E-04   456   0.993E-02
   3 F= -.64833391E+02 E0= -.64790078E+02  d E =-.874651E-01
 curvature:  -0.18 expect dE=-0.102E+00 dE for cont linesearch -0.408E-04
 trial: gam= 1.58078 g(F)=  0.498E+00 g(S)=  0.610E-01 ort = 0.881E-02 (trialstep = 0.213E+00)
 search vector abs. value=  0.146E+01
 bond charge predicted
       N       E                     dE             d eps       ncg     rms          rms(c)
DAV:   1    -0.649237735018E+02   -0.90350E-01   -0.73680E+00   384   0.187E+01    0.950E-01
DAV:   2    -0.649114280164E+02    0.12345E-01   -0.18631E-01   480   0.311E+00    0.593E-01
DAV:   3    -0.649029092015E+02    0.85188E-02   -0.42005E-02   448   0.137E+00    0.240E-01
DAV:   4    -0.649023124388E+02    0.59676E-03   -0.72211E-03   480   0.544E-01    0.135E-01
DAV:   5    -0.649020183632E+02    0.29408E-03   -0.13328E-03   480   0.185E-01    0.644E-02
DAV:   6    -0.649019865323E+02    0.31831E-04   -0.24468E-04   376   0.920E-02
   4 F= -.64901987E+02 E0= -.64870938E+02  d E =-.685958E-01
 trial-energy change:   -0.068596  1 .order   -0.067506   -0.122138   -0.012873
 step:   0.2366(harm=  0.2382)  dis= 0.02133  next Energy=   -64.902699 (dE=-0.693E-01)
 bond charge predicted
       N       E                     dE             d eps       ncg     rms          rms(c)
DAV:   1    -0.649031541707E+02   -0.11358E-02   -0.90953E-02   384   0.208E+00    0.106E-01
DAV:   2    -0.649029998705E+02    0.15430E-03   -0.23470E-03   488   0.353E-01    0.665E-02
DAV:   3    -0.649029036376E+02    0.96233E-04   -0.67847E-04   472   0.167E-01
   5 F= -.64902904E+02 E0= -.64872713E+02  d E =-.695129E-01
 curvature:  -0.30 expect dE=-0.723E-01 dE for cont linesearch -0.146E-05
 trial: gam= 0.21986 g(F)=  0.186E+00 g(S)=  0.539E-01 ort = 0.266E-02 (trialstep = 0.218E+00)
 search vector abs. value=  0.312E+00
 bond charge predicted
       N       E                     dE             d eps       ncg     rms          rms(c)
DAV:   1    -0.649525182784E+02   -0.49518E-01   -0.18190E+00   384   0.874E+00    0.492E-01
DAV:   2    -0.649482603072E+02    0.42580E-02   -0.58174E-02   496   0.145E+00    0.300E-01
DAV:   3    -0.649463418635E+02    0.19184E-02   -0.51673E-03   504   0.458E-01    0.167E-01
DAV:   4    -0.649456263654E+02    0.71550E-03   -0.24547E-03   480   0.331E-01    0.530E-02
DAV:   5    -0.649455667447E+02    0.59621E-04   -0.24732E-04   416   0.896E-02
   6 F= -.64945567E+02 E0= -.64916623E+02  d E =-.426631E-01
 trial-energy change:   -0.042663  1 .order   -0.042706   -0.052372   -0.033041
 step:   0.5900(harm=  0.5900)  dis= 0.01606  next Energy=   -64.973849 (dE=-0.709E-01)
 bond charge predicted
       N       E                     dE             d eps       ncg     rms          rms(c)
DAV:   1    -0.649951578127E+02   -0.49531E-01   -0.52923E+00   384   0.149E+01    0.846E-01
DAV:   2    -0.649816781873E+02    0.13480E-01   -0.19695E-01   480   0.254E+00    0.487E-01
DAV:   3    -0.649763473897E+02    0.53308E-02   -0.12629E-02   512   0.745E-01    0.266E-01
DAV:   4    -0.649744375956E+02    0.19098E-02   -0.55780E-03   496   0.541E-01    0.609E-02
DAV:   5    -0.649744274652E+02    0.10130E-04   -0.49058E-04   480   0.139E-01
   7 F= -.64974427E+02 E0= -.64946980E+02  d E =-.715238E-01
 curvature:  -0.38 expect dE=-0.198E+00 dE for cont linesearch -0.783E-05
 trial: gam= 2.16225 g(F)=  0.481E+00 g(S)=  0.386E-01 ort = 0.253E-02 (trialstep = 0.458E-01)
 search vector abs. value=  0.199E+01
 bond charge predicted
       N       E                     dE             d eps       ncg     rms          rms(c)
DAV:   1    -0.649985946463E+02   -0.24157E-01   -0.50127E-01   384   0.440E+00    0.250E-01
DAV:   2    -0.649976191316E+02    0.97551E-03   -0.15539E-02   432   0.730E-01    0.143E-01
DAV:   3    -0.649971670740E+02    0.45206E-03   -0.12924E-03   480   0.226E-01    0.773E-02
DAV:   4    -0.649970452165E+02    0.12186E-03   -0.34623E-04   448   0.140E-01    0.184E-02
DAV:   5    -0.649970925056E+02   -0.47289E-04   -0.38910E-05   368   0.463E-02
   8 F= -.64997093E+02 E0= -.64970947E+02  d E =-.226650E-01
 ZBRENT: can't locate minimum, use default step
 trial-energy change:   -0.022665  1 .order   -0.022449   -0.024045   -0.020852
 step:   0.1833(harm=  0.3451)  dis= 0.00987  next Energy=   -65.064974 (dE=-0.905E-01)
 bond charge predicted
       N       E                     dE             d eps       ncg     rms          rms(c)
DAV:   1    -0.650585703994E+02   -0.61525E-01   -0.44853E+00   384   0.130E+01    0.753E-01
DAV:   2    -0.650495740289E+02    0.89964E-02   -0.14627E-01   480   0.230E+00    0.430E-01
DAV:   3    -0.650456213479E+02    0.39527E-02   -0.12070E-02   480   0.727E-01    0.222E-01
DAV:   4    -0.650443050824E+02    0.13163E-02   -0.25039E-03   512   0.389E-01    0.564E-02
DAV:   5    -0.650442622265E+02    0.42856E-04   -0.19263E-04   352   0.999E-02
   9 F= -.65044262E+02 E0= -.65022393E+02  d E =-.698348E-01
 curvature:  -0.46 expect dE=-0.122E+00 dE for cont linesearch -0.124E-01
 ZBRENT: increasing intervall
 opt :   0.4582  next Energy=   -65.046210 (dE=-0.718E-01)
 bond charge predicted
       N       E                     dE             d eps       ncg     rms          rms(c)
DAV:   1    -0.651007715199E+02   -0.56466E-01   -0.17854E+01   384   0.259E+01    0.152E+00
DAV:   2    -0.650637624809E+02    0.37009E-01   -0.60947E-01   480   0.502E+00    0.880E-01
DAV:   3    -0.650477361356E+02    0.16026E-01   -0.53894E-02   480   0.165E+00    0.405E-01
DAV:   4    -0.650434898542E+02    0.42463E-02   -0.76037E-03   504   0.691E-01    0.128E-01
DAV:   5    -0.650431243499E+02    0.36550E-03   -0.12828E-03   472   0.216E-01    0.413E-02
DAV:   6    -0.650434349025E+02   -0.31055E-03   -0.24169E-04   392   0.106E-01    0.199E-02
DAV:   7    -0.650437970649E+02   -0.36216E-03   -0.15212E-04   360   0.575E-02    0.105E-02
DAV:   8    -0.650440572819E+02   -0.26022E-03   -0.89827E-05   312   0.418E-02    0.609E-03
DAV:   9    -0.650442228378E+02   -0.16556E-03   -0.68239E-05   344   0.309E-02    0.374E-03
DAV:  10    -0.650442875350E+02   -0.64697E-04   -0.17238E-05   336   0.199E-02
  10 F= -.65044288E+02 E0= -.65030708E+02  d E =-.698601E-01
 curvature:  -0.07 expect dE=-0.964E-01 dE for cont linesearch -0.228E-02
 ZBRENT: bracketing found
 ZBRENT: interpolating
 opt :   0.3154  next Energy=   -65.059524 (dE=-0.851E-01)
 bond charge predicted
       N       E                     dE             d eps       ncg     rms          rms(c)
DAV:   1    -0.650808214237E+02   -0.36599E-01   -0.51440E+00   472   0.144E+01    0.783E-01
DAV:   2    -0.650661421728E+02    0.14679E-01   -0.73188E-02   480   0.196E+00    0.427E-01
DAV:   3    -0.650612856562E+02    0.48565E-02   -0.25225E-02   440   0.967E-01    0.134E-01
DAV:   4    -0.650606286315E+02    0.65702E-03   -0.36098E-03   440   0.368E-01    0.835E-02
DAV:   5    -0.650604378993E+02    0.19073E-03   -0.72800E-04   472   0.149E-01    0.287E-02
DAV:   6    -0.650604396647E+02   -0.17654E-05   -0.11806E-04   336   0.690E-02
  11 F= -.65060440E+02 E0= -.65042699E+02  d E =-.860122E-01
 curvature:  -0.49 expect dE=-0.253E+00 dE for cont linesearch -0.240E-04
 trial: gam= 1.03158 g(F)=  0.425E+00 g(S)=  0.964E-01 ort = 0.991E-02 (trialstep = 0.746E-01)
 search vector abs. value=  0.266E+01
 bond charge predicted
       N       E                     dE             d eps       ncg     rms          rms(c)
DAV:   1    -0.651067840442E+02   -0.46346E-01   -0.18586E+00   384   0.775E+00    0.496E-01
DAV:   2    -0.651008787249E+02    0.59053E-02   -0.54682E-02   480   0.138E+00    0.250E-01
DAV:   3    -0.650995535815E+02    0.13251E-02   -0.46054E-03   480   0.444E-01    0.113E-01
DAV:   4    -0.650992249184E+02    0.32866E-03   -0.59821E-04   480   0.185E-01    0.334E-02
DAV:   5    -0.650991654756E+02    0.59443E-04   -0.66397E-05   304   0.510E-02
  12 F= -.65099165E+02 E0= -.65083294E+02  d E =-.387258E-01
 ZBRENT: can't locate minimum, use default step
 trial-energy change:   -0.038726  1 .order   -0.038504   -0.039648   -0.037360
 step:   0.2984(harm=  1.2925)  dis= 0.01894  next Energy=   -65.403888 (dE=-0.343E+00)
 bond charge predicted
       N       E                     dE             d eps       ncg     rms          rms(c)
DAV:   1    -0.652785976209E+02   -0.17937E+00   -0.16595E+01   400   0.231E+01    0.161E+00
DAV:   2    -0.652182000327E+02    0.60398E-01   -0.59787E-01   480   0.476E+00    0.780E-01
DAV:   3    -0.652028913733E+02    0.15309E-01   -0.49064E-02   480   0.154E+00    0.391E-01
DAV:   4    -0.651990958301E+02    0.37955E-02   -0.11190E-02   512   0.771E-01    0.136E-01
DAV:   5    -0.651987514309E+02    0.34440E-03   -0.15175E-03   448   0.233E-01    0.463E-02
DAV:   6    -0.651988623588E+02   -0.11093E-03   -0.30014E-04   416   0.102E-01    0.193E-02
DAV:   7    -0.651991138731E+02   -0.25151E-03   -0.11968E-04   352   0.578E-02    0.119E-02
DAV:   8    -0.651994718140E+02   -0.35794E-03   -0.15221E-04   360   0.478E-02    0.642E-03
DAV:   9    -0.651995937136E+02   -0.12190E-03   -0.23198E-05   328   0.235E-02    0.383E-03
DAV:  10    -0.651996943900E+02   -0.10068E-03   -0.28924E-05   288   0.188E-02    0.226E-03
DAV:  11    -0.651997251877E+02   -0.30798E-04   -0.68728E-06   352   0.118E-02
  13 F= -.65199725E+02 E0= -.65187684E+02  d E =-.139286E+00
 curvature:  -1.08 expect dE=-0.371E+00 dE for cont linesearch -0.619E-01
 ZBRENT: increasing intervall
 opt :   0.7460  next Energy=   -65.325209 (dE=-0.265E+00)
 bond charge predicted
       N       E                     dE             d eps       ncg     rms          rms(c)
DAV:   1    -0.656058851715E+02   -0.40619E+00   -0.67469E+01   400   0.484E+01    0.320E+00
DAV:   2    -0.654072078894E+02    0.19868E+00   -0.18133E+00   448   0.818E+00    0.158E+00
DAV:   3    -0.653202447207E+02    0.86963E-01   -0.28445E-01   528   0.325E+00    0.651E-01
DAV:   4    -0.653084046693E+02    0.11840E-01   -0.36072E-02   480   0.108E+00    0.307E-01
DAV:   5    -0.653073134364E+02    0.10912E-02   -0.59043E-03   416   0.452E-01    0.962E-02
DAV:   6    -0.653074243536E+02   -0.11092E-03   -0.11385E-03   416   0.203E-01    0.434E-02
DAV:   7    -0.653081114876E+02   -0.68713E-03   -0.68796E-04   360   0.129E-01    0.304E-02
DAV:   8    -0.653087789446E+02   -0.66746E-03   -0.49128E-04   368   0.104E-01    0.169E-02
DAV:   9    -0.653091236425E+02   -0.34470E-03   -0.27355E-04   360   0.702E-02    0.114E-02
DAV:  10    -0.653093038805E+02   -0.18024E-03   -0.64561E-05   296   0.410E-02    0.631E-03
DAV:  11    -0.653093896388E+02   -0.85758E-04   -0.20428E-05   304   0.224E-02
  14 F= -.65309390E+02 E0= -.65296134E+02  d E =-.248950E+00
 curvature:  -2.18 expect dE=-0.606E+00 dE for cont linesearch -0.719E-02
 ZBRENT: extrapolating
 opt :   0.8869  next Energy=   -65.315973 (dE=-0.256E+00)
 bond charge predicted
       N       E                     dE             d eps       ncg     rms          rms(c)
DAV:   1    -0.653466761756E+02   -0.37372E-01   -0.66894E+00   392   0.148E+01    0.949E-01
DAV:   2    -0.653272660434E+02    0.19410E-01   -0.15873E-01   432   0.262E+00    0.519E-01
DAV:   3    -0.653158512996E+02    0.11415E-01   -0.35825E-02   440   0.113E+00    0.163E-01
DAV:   4    -0.653152585842E+02    0.59272E-03   -0.21816E-03   472   0.298E-01    0.842E-02
DAV:   5    -0.653154588444E+02   -0.20026E-03   -0.53389E-04   400   0.141E-01    0.277E-02
DAV:   6    -0.653156774832E+02   -0.21864E-03   -0.12412E-04   312   0.682E-02    0.147E-02
DAV:   7    -0.653159949830E+02   -0.31750E-03   -0.13200E-04   352   0.566E-02    0.955E-03
DAV:   8    -0.653162290634E+02   -0.23408E-03   -0.68376E-05   320   0.414E-02    0.653E-03
DAV:   9    -0.653163995601E+02   -0.17050E-03   -0.76216E-05   296   0.318E-02    0.374E-03
DAV:  10    -0.653164539269E+02   -0.54367E-04   -0.14312E-05   360   0.183E-02
  15 F= -.65316454E+02 E0= -.65302592E+02  d E =-.256014E+00
 curvature:  -2.00 expect dE=-0.619E+00 dE for cont linesearch -0.211E-06
 trial: gam= 0.29703 g(F)=  0.299E+00 g(S)=  0.104E-01 ort =-0.529E-03 (trialstep = 0.237E+00)
 search vector abs. value=  0.543E+00
 bond charge predicted
       N       E                     dE             d eps       ncg     rms          rms(c)
DAV:   1    -0.653559993775E+02   -0.39600E-01   -0.40099E+00   384   0.136E+01    0.823E-01
DAV:   2    -0.653472026911E+02    0.87967E-02   -0.10384E-01   464   0.225E+00    0.467E-01
DAV:   3    -0.653399994025E+02    0.72033E-02   -0.32728E-02   472   0.111E+00    0.124E-01
DAV:   4    -0.653398930422E+02    0.10636E-03   -0.34794E-03   480   0.391E-01    0.701E-02
DAV:   5    -0.653399262344E+02   -0.33192E-04   -0.52273E-04   456   0.131E-01
  16 F= -.65339926E+02 E0= -.65323158E+02  d E =-.234723E-01
 trial-energy change:   -0.023472  1 .order   -0.025160   -0.073300    0.022980
 step:   0.1757(harm=  0.1805)  dis= 0.01210  next Energy=   -65.342930 (dE=-0.265E-01)
 bond charge predicted
       N       E                     dE             d eps       ncg     rms          rms(c)
DAV:   1    -0.653438564829E+02   -0.39634E-02   -0.26700E-01   408   0.354E+00    0.214E-01
DAV:   2    -0.653435560786E+02    0.30040E-03   -0.68383E-03   480   0.558E-01    0.117E-01
DAV:   3    -0.653432988361E+02    0.25724E-03   -0.19240E-03   392   0.268E-01    0.304E-02
DAV:   4    -0.653433407282E+02   -0.41892E-04   -0.21370E-04   432   0.990E-02
  17 F= -.65343341E+02 E0= -.65327406E+02  d E =-.268868E-01
 curvature:  -0.16 expect dE=-0.244E-01 dE for cont linesearch -0.914E-05
 trial: gam= 0.47513 g(F)=  0.137E+00 g(S)=  0.183E-01 ort = 0.562E-02 (trialstep = 0.225E+00)
 search vector abs. value=  0.283E+00
 bond charge predicted
       N       E                     dE             d eps       ncg     rms          rms(c)
DAV:   1    -0.653728700621E+02   -0.29571E-01   -0.15209E+00   408   0.878E+00    0.432E-01
DAV:   2    -0.653706674220E+02    0.22026E-02   -0.34560E-02   504   0.129E+00    0.239E-01
DAV:   3    -0.653692150640E+02    0.14524E-02   -0.61503E-03   432   0.536E-01    0.697E-02
DAV:   4    -0.653691539655E+02    0.61098E-04   -0.69554E-04   416   0.174E-01
  18 F= -.65369154E+02 E0= -.65359061E+02  d E =-.258132E-01
 trial-energy change:   -0.025813  1 .order   -0.025976   -0.035390   -0.016562
 step:   0.4225(harm=  0.4225)  dis= 0.02112  next Energy=   -65.376600 (dE=-0.333E-01)
 bond charge predicted
       N       E                     dE             d eps       ncg     rms          rms(c)
DAV:   1    -0.653781175204E+02   -0.89025E-02   -0.11691E+00   384   0.771E+00    0.369E-01
DAV:   2    -0.653770049160E+02    0.11126E-02   -0.28355E-02   512   0.115E+00    0.211E-01
DAV:   3    -0.653758906798E+02    0.11142E-02   -0.49782E-03   480   0.481E-01    0.616E-02
DAV:   4    -0.653758712845E+02    0.19395E-04   -0.61775E-04   384   0.164E-01
  19 F= -.65375871E+02 E0= -.65369434E+02  d E =-.325306E-01
 curvature:  -0.38 expect dE=-0.151E-01 dE for cont linesearch -0.277E-04
 trial: gam= 0.30302 g(F)=  0.266E-01 g(S)=  0.131E-01 ort =-0.454E-02 (trialstep = 0.264E+00)
 search vector abs. value=  0.629E-01
 bond charge predicted
       N       E                     dE             d eps       ncg     rms          rms(c)
DAV:   1    -0.653843996133E+02   -0.85089E-02   -0.42904E-01   384   0.454E+00    0.207E-01
DAV:   2    -0.653840273714E+02    0.37224E-03   -0.92989E-03   504   0.678E-01    0.128E-01
DAV:   3    -0.653835303610E+02    0.49701E-03   -0.18809E-03   432   0.264E-01    0.401E-02
DAV:   4    -0.653835489395E+02   -0.18579E-04   -0.18822E-04   360   0.909E-02
  20 F= -.65383549E+02 E0= -.65376275E+02  d E =-.767766E-02
 trial-energy change:   -0.007678  1 .order   -0.007841   -0.010134   -0.005547
 step:   0.5840(harm=  0.5840)  dis= 0.00767  next Energy=   -65.387066 (dE=-0.112E-01)
 bond charge predicted
       N       E                     dE             d eps       ncg     rms          rms(c)
DAV:   1    -0.653881774250E+02   -0.46471E-02   -0.62937E-01   384   0.549E+00    0.252E-01
DAV:   2    -0.653875953203E+02    0.58210E-03   -0.13592E-02   496   0.819E-01    0.153E-01
DAV:   3    -0.653868592782E+02    0.73604E-03   -0.27871E-03   464   0.320E-01    0.490E-02
DAV:   4    -0.653868593969E+02   -0.11871E-06   -0.28439E-04   384   0.111E-01
  21 F= -.65386859E+02 E0= -.65378124E+02  d E =-.109881E-01
 curvature:  -0.48 expect dE=-0.135E-01 dE for cont linesearch -0.960E-05
 trial: gam= 0.62099 g(F)=  0.250E-01 g(S)=  0.324E-02 ort = 0.112E-02 (trialstep = 0.328E+00)
 search vector abs. value=  0.539E-01
 bond charge predicted
       N       E                     dE             d eps       ncg     rms          rms(c)
DAV:   1    -0.653958405229E+02   -0.89812E-02   -0.54668E-01   384   0.499E+00    0.236E-01
DAV:   2    -0.653949263707E+02    0.91415E-03   -0.11019E-02   496   0.750E-01    0.135E-01
DAV:   3    -0.653942544333E+02    0.67194E-03   -0.19997E-03   456   0.273E-01    0.463E-02
DAV:   4    -0.653942341463E+02    0.20287E-04   -0.26364E-04   344   0.112E-01
  22 F= -.65394234E+02 E0= -.65385870E+02  d E =-.737475E-02
 trial-energy change:   -0.007375  1 .order   -0.007767   -0.009494   -0.006040
 step:   0.9021(harm=  0.9021)  dis= 0.01057  next Energy=   -65.399905 (dE=-0.130E-01)
 bond charge predicted
       N       E                     dE             d eps       ncg     rms          rms(c)
DAV:   1    -0.654034859378E+02   -0.92315E-02   -0.16714E+00   384   0.872E+00    0.415E-01
DAV:   2    -0.654007889710E+02    0.26970E-02   -0.33847E-02   512   0.131E+00    0.234E-01
DAV:   3    -0.653988480457E+02    0.19409E-02   -0.56897E-03   448   0.461E-01    0.827E-02
DAV:   4    -0.653986978313E+02    0.15021E-03   -0.76274E-04   416   0.186E-01    0.396E-02
DAV:   5    -0.653987637961E+02   -0.65965E-04   -0.19575E-04   320   0.806E-02
  23 F= -.65398764E+02 E0= -.65391054E+02  d E =-.119044E-01
 curvature:  -0.84 expect dE=-0.128E-01 dE for cont linesearch -0.396E-05
 trial: gam= 0.62685 g(F)=  0.644E-02 g(S)=  0.882E-02 ort =-0.504E-03 (trialstep = 0.443E+00)
 search vector abs. value=  0.358E-01
 bond charge predicted
       N       E                     dE             d eps       ncg     rms          rms(c)
DAV:   1    -0.654066405635E+02   -0.79427E-02   -0.69560E-01   448   0.578E+00    0.309E-01
DAV:   2    -0.654047370236E+02    0.19035E-02   -0.10229E-02   512   0.702E-01    0.172E-01
DAV:   3    -0.654037431282E+02    0.99390E-03   -0.39690E-03   464   0.394E-01    0.393E-02
DAV:   4    -0.654037817164E+02   -0.38588E-04   -0.27249E-04   352   0.121E-01
  24 F= -.65403782E+02 E0= -.65396447E+02  d E =-.501792E-02
 trial-energy change:   -0.005018  1 .order   -0.004964   -0.006618   -0.003310
 step:   0.8862(harm=  0.8862)  dis= 0.01126  next Energy=   -65.405384 (dE=-0.662E-02)
 bond charge predicted
       N       E                     dE             d eps       ncg     rms          rms(c)
DAV:   1    -0.654085204728E+02   -0.47773E-02   -0.69694E-01   448   0.579E+00    0.311E-01
DAV:   2    -0.654065972490E+02    0.19232E-02   -0.10328E-02   480   0.707E-01    0.173E-01
DAV:   3    -0.654055883072E+02    0.10089E-02   -0.40208E-03   448   0.396E-01    0.402E-02
DAV:   4    -0.654056211453E+02   -0.32838E-04   -0.28775E-04   344   0.124E-01
  25 F= -.65405621E+02 E0= -.65398630E+02  d E =-.685735E-02
 curvature:  -1.06 expect dE=-0.425E-01 dE for cont linesearch -0.439E-05
 trial: gam= 2.57449 g(F)=  0.343E-01 g(S)=  0.569E-02 ort = 0.385E-03 (trialstep = 0.681E-01)
 search vector abs. value=  0.279E+00
 bond charge predicted
       N       E                     dE             d eps       ncg     rms          rms(c)
DAV:   1    -0.654087634026E+02   -0.31751E-02   -0.13396E-01   416   0.251E+00    0.140E-01
DAV:   2    -0.654083262719E+02    0.43713E-03   -0.25319E-03   480   0.333E-01    0.812E-02
DAV:   3    -0.654081115053E+02    0.21477E-03   -0.12126E-03   464   0.205E-01    0.236E-02
DAV:   4    -0.654081458956E+02   -0.34390E-04   -0.75144E-05   320   0.630E-02
  26 F= -.65408146E+02 E0= -.65400585E+02  d E =-.252475E-02
 trial-energy change:   -0.002525  1 .order   -0.002387   -0.002796   -0.001977
 step:   0.2327(harm=  0.2327)  dis= 0.00855  next Energy=   -65.410395 (dE=-0.477E-02)
 bond charge predicted
       N       E                     dE             d eps       ncg     rms          rms(c)
DAV:   1    -0.654148398491E+02   -0.67283E-02   -0.78452E-01   448   0.604E+00    0.346E-01
DAV:   2    -0.654119465479E+02    0.28933E-02   -0.12099E-02   488   0.749E-01    0.196E-01
DAV:   3    -0.654105145762E+02    0.14320E-02   -0.67961E-03   464   0.488E-01    0.529E-02
DAV:   4    -0.654105383469E+02   -0.23771E-04   -0.45074E-04   408   0.148E-01
  27 F= -.65410538E+02 E0= -.65401403E+02  d E =-.491720E-02
 curvature:  -0.79 expect dE=-0.193E-01 dE for cont linesearch -0.107E-06
 trial: gam= 0.67619 g(F)=  0.216E-01 g(S)=  0.278E-02 ort = 0.194E-03 (trialstep = 0.101E+00)
 search vector abs. value=  0.152E+00
 bond charge predicted
       N       E                     dE             d eps       ncg     rms          rms(c)
DAV:   1    -0.654135186369E+02   -0.30041E-02   -0.15803E-01   384   0.266E+00    0.135E-01
DAV:   2    -0.654131615592E+02    0.35708E-03   -0.32132E-03   464   0.379E-01    0.815E-02
DAV:   3    -0.654129079086E+02    0.25365E-03   -0.11238E-03   456   0.194E-01    0.237E-02
DAV:   4    -0.654129530759E+02   -0.45167E-04   -0.80541E-05   296   0.621E-02
  28 F= -.65412953E+02 E0= -.65403801E+02  d E =-.241473E-02
 ZBRENT: can't locate minimum, use default step
 trial-energy change:   -0.002415  1 .order   -0.002355   -0.002482   -0.002228
 step:   0.4042(harm=  0.9909)  dis= 0.01126  next Energy=   -65.422704 (dE=-0.122E-01)
 bond charge predicted
       N       E                     dE             d eps       ncg     rms          rms(c)
DAV:   1    -0.654232828453E+02   -0.10375E-01   -0.14181E+00   384   0.793E+00    0.411E-01
DAV:   2    -0.654200922902E+02    0.31906E-02   -0.28787E-02   456   0.114E+00    0.243E-01
DAV:   3    -0.654177411022E+02    0.23512E-02   -0.94658E-03   448   0.568E-01    0.672E-02
DAV:   4    -0.654178087588E+02   -0.67657E-04   -0.74060E-04   408   0.178E-01
  29 F= -.65417809E+02 E0= -.65408496E+02  d E =-.727041E-02
 curvature:  -1.74 expect dE=-0.225E-01 dE for cont linesearch -0.247E-02
 ZBRENT: increasing intervall
 opt :   1.0106  next Energy=   -65.422269 (dE=-0.117E-01)
 bond charge predicted
       N       E                     dE             d eps       ncg     rms          rms(c)
DAV:   1    -0.654414186773E+02   -0.23678E-01   -0.56626E+00   384   0.158E+01    0.837E-01
DAV:   2    -0.654282577236E+02    0.13161E-01   -0.11537E-01   464   0.229E+00    0.491E-01
DAV:   3    -0.654190509031E+02    0.92068E-02   -0.36720E-02   456   0.113E+00    0.136E-01
DAV:   4    -0.654192263221E+02   -0.17542E-03   -0.28410E-03   416   0.347E-01    0.747E-02
DAV:   5    -0.654193435742E+02   -0.11725E-03   -0.31025E-04   352   0.117E-01    0.235E-02
DAV:   6    -0.654195551545E+02   -0.21158E-03   -0.89049E-05   304   0.596E-02    0.122E-02
DAV:   7    -0.654198572289E+02   -0.30207E-03   -0.10122E-04   344   0.453E-02    0.831E-03
DAV:   8    -0.654200727545E+02   -0.21553E-03   -0.64102E-05   280   0.341E-02    0.540E-03
DAV:   9    -0.654201684217E+02   -0.95667E-04   -0.40855E-05   312   0.262E-02
  30 F= -.65420168E+02 E0= -.65410554E+02  d E =-.963007E-02
 curvature:  -3.14 expect dE=-0.127E+00 dE for cont linesearch -0.722E-03
 trial: gam= 0.00000 g(F)=  0.319E-01 g(S)=  0.848E-02 ort =-0.591E-02 (trialstep = 0.283E+00)
 search vector abs. value=  0.404E-01
 bond charge predicted
       N       E                     dE             d eps       ncg     rms          rms(c)
DAV:   1    -0.654275592728E+02   -0.74865E-02   -0.39533E-01   424   0.428E+00    0.205E-01
DAV:   2    -0.654271285758E+02    0.43070E-03   -0.99915E-03   472   0.666E-01    0.123E-01
DAV:   3    -0.654268505415E+02    0.27803E-03   -0.13882E-03   472   0.238E-01    0.481E-02
DAV:   4    -0.654268356018E+02    0.14940E-04   -0.22762E-04   376   0.915E-02
  31 F= -.65426836E+02 E0= -.65418507E+02  d E =-.666718E-02
 trial-energy change:   -0.006667  1 .order   -0.006630   -0.011435   -0.001825
 step:   0.3367(harm=  0.3367)  dis= 0.00549  next Energy=   -65.426972 (dE=-0.680E-02)
 bond charge predicted
       N       E                     dE             d eps       ncg     rms          rms(c)
DAV:   1    -0.654270210162E+02   -0.17047E-03   -0.14002E-02   432   0.807E-01    0.397E-02
DAV:   2    -0.654270074319E+02    0.13584E-04   -0.32765E-04   400   0.123E-01
  32 F= -.65427007E+02 E0= -.65418949E+02  d E =-.683901E-02
 curvature:  -0.17 expect dE=-0.281E-02 dE for cont linesearch -0.149E-05
 trial: gam= 0.39844 g(F)=  0.139E-01 g(S)=  0.281E-02 ort = 0.597E-03 (trialstep = 0.294E+00)
 search vector abs. value=  0.236E-01
 bond charge predicted
       N       E                     dE             d eps       ncg     rms          rms(c)
DAV:   1    -0.654297805449E+02   -0.27595E-02   -0.21101E-01   384   0.322E+00    0.193E-01
DAV:   2    -0.654294472459E+02    0.33330E-03   -0.51810E-03   512   0.522E-01    0.113E-01
DAV:   3    -0.654291867944E+02    0.26045E-03   -0.16069E-03   480   0.258E-01    0.352E-02
DAV:   4    -0.654291753658E+02    0.11429E-04   -0.26137E-04   408   0.104E-01
  33 F= -.65429175E+02 E0= -.65422723E+02  d E =-.216793E-02
 trial-energy change:   -0.002168  1 .order   -0.002163   -0.004975    0.000648
 step:   0.2598(harm=  0.2598)  dis= 0.00308  next Energy=   -65.429208 (dE=-0.220E-02)
 bond charge predicted
       N       E                     dE             d eps       ncg     rms          rms(c)
DAV:   1    -0.654292122050E+02   -0.25411E-04   -0.28221E-03   384   0.374E-01    0.231E-02
DAV:   2    -0.654292028209E+02    0.93841E-05   -0.69622E-05   296   0.646E-02
  34 F= -.65429203E+02 E0= -.65422565E+02  d E =-.219539E-02
 curvature:  -0.18 expect dE=-0.295E-02 dE for cont linesearch -0.821E-06
 trial: gam= 0.98001 g(F)=  0.156E-01 g(S)=  0.634E-03 ort =-0.327E-03 (trialstep = 0.177E+00)
 search vector abs. value=  0.383E-01
 bond charge predicted
       N       E                     dE             d eps       ncg     rms          rms(c)
DAV:   1    -0.654315679909E+02   -0.23558E-02   -0.11902E-01   384   0.242E+00    0.925E-02
DAV:   2    -0.654315479549E+02    0.20036E-04   -0.24432E-03   496   0.342E-01    0.576E-02
DAV:   3    -0.654314836955E+02    0.64259E-04   -0.22673E-04   296   0.108E-01
  35 F= -.65431484E+02 E0= -.65424506E+02  d E =-.228087E-02
 trial-energy change:   -0.002281  1 .order   -0.002269   -0.002821   -0.001717
 step:   0.4515(harm=  0.4515)  dis= 0.00720  next Energy=   -65.432806 (dE=-0.360E-02)
 bond charge predicted
       N       E                     dE             d eps       ncg     rms          rms(c)
DAV:   1    -0.654330305166E+02   -0.14826E-02   -0.28617E-01   384   0.375E+00    0.148E-01
DAV:   2    -0.654329854491E+02    0.45068E-04   -0.57185E-03   504   0.519E-01    0.926E-02
DAV:   3    -0.654328244331E+02    0.16102E-03   -0.54795E-04   432   0.163E-01    0.343E-02
DAV:   4    -0.654328104574E+02    0.13976E-04   -0.88318E-05   328   0.628E-02
  36 F= -.65432810E+02 E0= -.65425174E+02  d E =-.360764E-02
 curvature:  -0.54 expect dE=-0.335E-02 dE for cont linesearch -0.839E-07
 trial: gam= 0.35377 g(F)=  0.359E-02 g(S)=  0.260E-02 ort = 0.770E-04 (trialstep = 0.232E+00)
 search vector abs. value=  0.110E-01
 bond charge predicted
       N       E                     dE             d eps       ncg     rms          rms(c)
DAV:   1    -0.654340717956E+02   -0.12474E-02   -0.64060E-02   384   0.180E+00    0.701E-02
DAV:   2    -0.654340624631E+02    0.93326E-05   -0.12576E-03   480   0.240E-01    0.438E-02
DAV:   3    -0.654340120551E+02    0.50408E-04   -0.18774E-04   288   0.986E-02
  37 F= -.65434012E+02 E0= -.65426235E+02  d E =-.120160E-02
 trial-energy change:   -0.001202  1 .order   -0.001190   -0.001440   -0.000940
 step:   0.6672(harm=  0.6672)  dis= 0.00601  next Energy=   -65.434884 (dE=-0.207E-02)
 bond charge predicted
       N       E                     dE             d eps       ncg     rms          rms(c)
DAV:   1    -0.654353292341E+02   -0.12668E-02   -0.22753E-01   384   0.339E+00    0.136E-01
DAV:   2    -0.654353030462E+02    0.26188E-04   -0.44793E-03   480   0.452E-01    0.849E-02
DAV:   3    -0.654351204852E+02    0.18256E-03   -0.74917E-04   432   0.189E-01    0.236E-02
DAV:   4    -0.654351235964E+02   -0.31112E-05   -0.86329E-05   296   0.630E-02
  38 F= -.65435124E+02 E0= -.65427127E+02  d E =-.231314E-02
 curvature:  -0.59 expect dE=-0.239E-02 dE for cont linesearch -0.257E-04
 trial: gam= 0.56200 g(F)=  0.333E-02 g(S)=  0.710E-03 ort = 0.692E-03 (trialstep = 0.319E+00)
 search vector abs. value=  0.830E-02
 bond charge predicted
       N       E                     dE             d eps       ncg     rms          rms(c)
DAV:   1    -0.654362635990E+02   -0.11431E-02   -0.89376E-02   384   0.214E+00    0.953E-02
DAV:   2    -0.654362144505E+02    0.49148E-04   -0.19040E-03   480   0.294E-01    0.581E-02
DAV:   3    -0.654361346944E+02    0.79756E-04   -0.30814E-04   344   0.130E-01
  39 F= -.65436135E+02 E0= -.65428714E+02  d E =-.101110E-02
 trial-energy change:   -0.001011  1 .order   -0.000917   -0.001412   -0.000421
 step:   0.4544(harm=  0.4544)  dis= 0.00309  next Energy=   -65.436130 (dE=-0.101E-02)
 bond charge predicted
       N       E                     dE             d eps       ncg     rms          rms(c)
DAV:   1    -0.654363279352E+02   -0.11348E-03   -0.16645E-02   384   0.928E-01    0.435E-02
DAV:   2    -0.654363199616E+02    0.79736E-05   -0.34090E-04   408   0.129E-01
  40 F= -.65436320E+02 E0= -.65429159E+02  d E =-.119637E-02
 curvature:  -0.43 expect dE=-0.339E-02 dE for cont linesearch -0.450E-04
 trial: gam= 0.00000 g(F)=  0.667E-02 g(S)=  0.129E-02 ort = 0.937E-03 (trialstep = 0.346E+00)
 search vector abs. value=  0.796E-02
 bond charge predicted
       N       E                     dE             d eps       ncg     rms          rms(c)
DAV:   1    -0.654362865845E+02    0.41351E-04   -0.13737E-01   384   0.246E+00    0.177E-01
DAV:   2    -0.654359051317E+02    0.38145E-03   -0.34902E-03   512   0.414E-01    0.931E-02
DAV:   3    -0.654356538100E+02    0.25132E-03   -0.12025E-03   464   0.205E-01    0.229E-02
DAV:   4    -0.654356540653E+02   -0.25528E-06   -0.14416E-04   400   0.759E-02
  41 F= -.65435654E+02 E0= -.65426747E+02  d E =0.665896E-03
 trial-energy change:    0.000666  1 .order    0.000594   -0.002755    0.003942
 step:   0.1423(harm=  0.1423)  dis= 0.00156  next Energy=   -65.436887 (dE=-0.567E-03)
 bond charge predicted
       N       E                     dE             d eps       ncg     rms          rms(c)
DAV:   1    -0.654370524900E+02   -0.13987E-02   -0.47342E-02   384   0.144E+00    0.106E-01
DAV:   2    -0.654369350742E+02    0.11742E-03   -0.11847E-03   416   0.244E-01    0.551E-02
DAV:   3    -0.654368741965E+02    0.60878E-04   -0.43450E-04   440   0.122E-01
  42 F= -.65436874E+02 E0= -.65429075E+02  d E =-.554235E-03
 curvature:  -0.07 expect dE=-0.152E-03 dE for cont linesearch -0.305E-08
 trial: gam= 0.26531 g(F)=  0.193E-02 g(S)=  0.203E-03 ort = 0.185E-04 (trialstep = 0.305E+00)
 search vector abs. value=  0.270E-02
 reached required accuracy - stopping structural energy minimisation
 writing wavefunctions
Sun Mar  6 20:27:52 CST 2022
