Sun Mar  6 19:35:59 CST 2022
 running on   48 total cores
 distrk:  each k-point on   48 cores,    1 groups
 distr:  one band on   24 cores,    2 groups
 using from now: INCAR     
 vasp.5.3.5 31Mar14 (build Jan 11 2016 19:50:55) complex                        
  
 POSCAR found type information on POSCAR  B  C  Na
 POSCAR found :  3 types and       9 ions
 scaLAPACK will be used

 ----------------------------------------------------------------------------- 
|                                                                             |
|           W    W    AA    RRRRR   N    N  II  N    N   GGGG   !!!           |
|           W    W   A  A   R    R  NN   N  II  NN   N  G    G  !!!           |
|           W    W  A    A  R    R  N N  N  II  N N  N  G       !!!           |
|           W WW W  AAAAAA  RRRRR   N  N N  II  N  N N  G  GGG   !            |
|           WW  WW  A    A  R   R   N   NN  II  N   NN  G    G                |
|           W    W  A    A  R    R  N    N  II  N    N   GGGG   !!!           |
|                                                                             |
|      For optimal performance we recommend to set                            |
|        NCORE= 4 - approx SQRT( number of cores)                             |
|      NCORE specifies how many cores store one orbital (NPAR=cpu/NCORE).     |
|      This setting can  greatly improve the performance of VASP for DFT.     |
|      The default, NPAR=number of cores might be grossly inefficient         |
|      on modern multi-core architectures or massively parallel machines.     |
|      Do your own testing !!!!                                               |
|      Unfortunately you need to use the default for GW and RPA calculations. |
|      (for HF NCORE is supported but not extensively tested yet)             |
|                                                                             |
 ----------------------------------------------------------------------------- 

 LDA part: xc-table for Pade appr. of Perdew
 POSCAR, INCAR and KPOINTS ok, starting setup
 WARNING: small aliasing (wrap around) errors must be expected
 FFT: planning ...
 WAVECAR not read
 entering main loop
       N       E                     dE             d eps       ncg     rms          rms(c)
DAV:   1     0.255419022193E+03    0.25542E+03   -0.12509E+04   480   0.870E+02
DAV:   2    -0.226284951816E+02   -0.27805E+03   -0.27253E+03   608   0.235E+02
DAV:   3    -0.716072469219E+02   -0.48979E+02   -0.48609E+02   440   0.102E+02
DAV:   4    -0.736559386045E+02   -0.20487E+01   -0.20288E+01   552   0.276E+01
DAV:   5    -0.737009693259E+02   -0.45031E-01   -0.44903E-01   528   0.365E+00    0.134E+01
DAV:   6    -0.669353923583E+02    0.67656E+01   -0.75227E+00   520   0.178E+01    0.743E+00
DAV:   7    -0.643282713098E+02    0.26071E+01   -0.83383E+00   528   0.152E+01    0.246E+00
DAV:   8    -0.641296401557E+02    0.19863E+00   -0.45083E-01   496   0.402E+00    0.736E-01
DAV:   9    -0.640259706379E+02    0.10367E+00   -0.73993E-02   504   0.149E+00    0.405E-01
DAV:  10    -0.640044938290E+02    0.21477E-01   -0.22526E-02   592   0.810E-01    0.363E-01
DAV:  11    -0.640017589710E+02    0.27349E-02   -0.11654E-02   504   0.653E-01    0.165E-01
DAV:  12    -0.640040161026E+02   -0.22571E-02   -0.94475E-03   448   0.372E-01    0.260E-01
DAV:  13    -0.640037266066E+02    0.28950E-03   -0.65514E-03   496   0.377E-01    0.753E-02
DAV:  14    -0.640073516664E+02   -0.36251E-02   -0.23297E-03   448   0.208E-01    0.107E-01
DAV:  15    -0.640095829584E+02   -0.22313E-02   -0.14356E-03   368   0.110E-01    0.468E-02
DAV:  16    -0.640111799461E+02   -0.15970E-02   -0.77850E-04   376   0.903E-02    0.484E-02
DAV:  17    -0.640119922671E+02   -0.81232E-03   -0.54085E-04   336   0.799E-02    0.161E-02
DAV:  18    -0.640122334499E+02   -0.24118E-03   -0.82601E-05   304   0.318E-02    0.541E-03
DAV:  19    -0.640124242615E+02   -0.19081E-03   -0.40578E-05   336   0.181E-02    0.455E-03
DAV:  20    -0.640124817884E+02   -0.57527E-04   -0.10730E-05   288   0.111E-02
   1 F= -.64012482E+02 E0= -.63952558E+02  d E =-.640125E+02
 curvature:   0.00 expect dE= 0.000E+00 dE for cont linesearch  0.000E+00
 trial: gam= 0.00000 g(F)=  0.107E+01 g(S)=  0.157E+00 ort = 0.000E+00 (trialstep = 0.100E+01)
 search vector abs. value=  0.122E+01
 bond charge predicted
       N       E                     dE             d eps       ncg     rms          rms(c)
DAV:   1    -0.637878647268E+02    0.22456E+00   -0.19039E+02   448   0.108E+02    0.465E+00
DAV:   2    -0.636198512411E+02    0.16801E+00   -0.45603E+00   512   0.157E+01    0.268E+00
DAV:   3    -0.634284889125E+02    0.19136E+00   -0.68669E-01   448   0.525E+00    0.109E+00
DAV:   4    -0.634293282499E+02   -0.83934E-03   -0.13507E-01   464   0.200E+00    0.754E-01
DAV:   5    -0.634139533526E+02    0.15375E-01   -0.25006E-02   512   0.868E-01    0.291E-01
DAV:   6    -0.634134040290E+02    0.54932E-03   -0.65687E-03   464   0.476E-01    0.791E-02
DAV:   7    -0.634135554002E+02   -0.15137E-03   -0.11869E-03   448   0.209E-01    0.468E-02
DAV:   8    -0.634136640783E+02   -0.10868E-03   -0.37345E-04   416   0.974E-02    0.244E-02
DAV:   9    -0.634138362276E+02   -0.17215E-03   -0.85731E-05   280   0.575E-02    0.126E-02
DAV:  10    -0.634141654508E+02   -0.32922E-03   -0.14139E-04   288   0.520E-02    0.113E-02
DAV:  11    -0.634143436195E+02   -0.17817E-03   -0.51094E-05   304   0.406E-02    0.651E-03
DAV:  12    -0.634145136448E+02   -0.17003E-03   -0.51356E-05   280   0.323E-02    0.547E-03
DAV:  13    -0.634145628420E+02   -0.49197E-04   -0.10471E-05   328   0.249E-02
   2 F= -.63414563E+02 E0= -.63383275E+02  d E =0.597919E+00
 trial-energy change:    0.597919  1 .order    0.790048   -1.223308    2.803404
 step:   0.3706(harm=  0.3038)  dis= 0.04684  next Energy=   -64.248921 (dE=-0.236E+00)
 bond charge predicted
       N       E                     dE             d eps       ncg     rms          rms(c)
DAV:   1    -0.646196092465E+02   -0.12051E+01   -0.69383E+01   384   0.569E+01    0.358E+00
DAV:   2    -0.644343647238E+02    0.18524E+00   -0.82232E+00   480   0.111E+01    0.171E+00
DAV:   3    -0.643249771417E+02    0.10939E+00   -0.21235E-01   424   0.337E+00    0.106E+00
DAV:   4    -0.642945164301E+02    0.30461E-01   -0.13662E-01   480   0.225E+00    0.707E-01
DAV:   5    -0.642865328293E+02    0.79836E-02   -0.74438E-02   448   0.125E+00    0.359E-01
DAV:   6    -0.642804939921E+02    0.60388E-02   -0.66007E-03   416   0.438E-01    0.144E-01
DAV:   7    -0.642799631614E+02    0.53083E-03   -0.18217E-03   464   0.222E-01    0.348E-02
DAV:   8    -0.642802213663E+02   -0.25820E-03   -0.22676E-04   400   0.812E-02    0.163E-02
DAV:   9    -0.642803815239E+02   -0.16016E-03   -0.53140E-05   336   0.364E-02    0.817E-03
DAV:  10    -0.642805462721E+02   -0.16475E-03   -0.42142E-05   288   0.258E-02    0.432E-03
DAV:  11    -0.642806993283E+02   -0.15306E-03   -0.59276E-05   304   0.242E-02    0.558E-03
DAV:  12    -0.642807446258E+02   -0.45297E-04   -0.96663E-06   328   0.145E-02
   3 F= -.64280745E+02 E0= -.64246801E+02  d E =-.268263E+00
 curvature:  -0.15 expect dE=-0.178E+00 dE for cont linesearch -0.173E-06
 trial: gam= 0.96806 g(F)=  0.110E+01 g(S)=  0.818E-01 ort = 0.119E-02 (trialstep = 0.458E+00)
 search vector abs. value=  0.233E+01
 bond charge predicted
       N       E                     dE             d eps       ncg     rms          rms(c)
DAV:   1    -0.642326946538E+02    0.48005E-01   -0.67623E+01   448   0.611E+01    0.224E+00
DAV:   2    -0.642189179782E+02    0.13777E-01   -0.12724E+00   448   0.844E+00    0.138E+00
DAV:   3    -0.641869804547E+02    0.31938E-01   -0.27527E-01   496   0.353E+00    0.545E-01
DAV:   4    -0.641844424156E+02    0.25380E-02   -0.44252E-02   472   0.123E+00    0.317E-01
DAV:   5    -0.641836592010E+02    0.78321E-03   -0.87436E-03   472   0.502E-01    0.993E-02
DAV:   6    -0.641836074430E+02    0.51758E-04   -0.11499E-03   464   0.201E-01    0.460E-02
DAV:   7    -0.641835876224E+02    0.19821E-04   -0.11376E-04   296   0.739E-02
   4 F= -.64183588E+02 E0= -.64146258E+02  d E =0.971570E-01
 trial-energy change:    0.097157  1 .order    0.055116   -0.543592    0.653825
 step:   0.1847(harm=  0.2080)  dis= 0.03530  next Energy=   -64.387596 (dE=-0.107E+00)
 bond charge predicted
       N       E                     dE             d eps       ncg     rms          rms(c)
DAV:   1    -0.644026795177E+02   -0.21907E+00   -0.21865E+01   384   0.311E+01    0.145E+00
DAV:   2    -0.644058113069E+02   -0.31318E-02   -0.58657E-01   432   0.523E+00    0.892E-01
DAV:   3    -0.643901826777E+02    0.15629E-01   -0.66372E-02   512   0.173E+00    0.489E-01
DAV:   4    -0.643880100849E+02    0.21726E-02   -0.16015E-02   496   0.938E-01    0.174E-01
DAV:   5    -0.643875260761E+02    0.48401E-03   -0.32728E-03   496   0.354E-01    0.751E-02
DAV:   6    -0.643875222793E+02    0.37968E-05   -0.39674E-04   432   0.122E-01
   5 F= -.64387522E+02 E0= -.64352169E+02  d E =-.106778E+00
 curvature:  -0.20 expect dE=-0.335E-01 dE for cont linesearch -0.158E-04
 trial: gam= 0.19335 g(F)=  0.145E+00 g(S)=  0.201E-01 ort =-0.135E-01 (trialstep = 0.403E+00)
 search vector abs. value=  0.247E+00
 bond charge predicted
       N       E                     dE             d eps       ncg     rms          rms(c)
DAV:   1    -0.644309935366E+02   -0.43467E-01   -0.57347E+00   384   0.146E+01    0.590E-01
DAV:   2    -0.644343573459E+02   -0.33638E-02   -0.14518E-01   448   0.226E+00    0.281E-01
DAV:   3    -0.644329401005E+02    0.14172E-02   -0.62984E-03   480   0.517E-01    0.180E-01
DAV:   4    -0.644322945684E+02    0.64553E-03   -0.26621E-03   448   0.322E-01    0.564E-02
DAV:   5    -0.644321869382E+02    0.10763E-03   -0.34093E-04   376   0.108E-01    0.258E-02
DAV:   6    -0.644321785684E+02    0.83698E-05   -0.84393E-05   304   0.636E-02
   6 F= -.64432179E+02 E0= -.64393454E+02  d E =-.446563E-01
 trial-energy change:   -0.044656  1 .order   -0.044737   -0.065542   -0.023931
 step:   0.6355(harm=  0.6355)  dis= 0.04950  next Energy=   -64.439141 (dE=-0.516E-01)
 bond charge predicted
       N       E                     dE             d eps       ncg     rms          rms(c)
DAV:   1    -0.644393005419E+02   -0.71136E-02   -0.18876E+00   400   0.823E+00    0.348E-01
DAV:   2    -0.644399085655E+02   -0.60802E-03   -0.45481E-02   472   0.129E+00    0.163E-01
DAV:   3    -0.644393663290E+02    0.54224E-03   -0.20292E-03   512   0.297E-01    0.101E-01
DAV:   4    -0.644391501950E+02    0.21613E-03   -0.82974E-04   448   0.175E-01    0.344E-02
DAV:   5    -0.644391112764E+02    0.38919E-04   -0.10180E-04   328   0.609E-02
   7 F= -.64439111E+02 E0= -.64398955E+02  d E =-.515890E-01
 curvature:  -0.48 expect dE=-0.364E-01 dE for cont linesearch -0.155E-05
 trial: gam= 0.45650 g(F)=  0.685E-01 g(S)=  0.671E-02 ort = 0.890E-03 (trialstep = 0.450E+00)
 search vector abs. value=  0.128E+00
 bond charge predicted
       N       E                     dE             d eps       ncg     rms          rms(c)
DAV:   1    -0.644586752697E+02   -0.19525E-01   -0.36306E+00   400   0.109E+01    0.360E-01
DAV:   2    -0.644629323565E+02   -0.42571E-02   -0.74373E-02   480   0.161E+00    0.218E-01
DAV:   3    -0.644622542607E+02    0.67810E-03   -0.41680E-03   488   0.450E-01    0.138E-01
DAV:   4    -0.644617754458E+02    0.47881E-03   -0.13535E-03   456   0.233E-01    0.304E-02
DAV:   5    -0.644617729342E+02    0.25117E-05   -0.16039E-04   384   0.842E-02
   8 F= -.64461773E+02 E0= -.64418617E+02  d E =-.226617E-01
 trial-energy change:   -0.022662  1 .order   -0.022764   -0.034019   -0.011509
 step:   0.6799(harm=  0.6799)  dis= 0.03825  next Energy=   -64.464817 (dE=-0.257E-01)
 bond charge predicted
       N       E                     dE             d eps       ncg     rms          rms(c)
DAV:   1    -0.644642688677E+02   -0.24934E-02   -0.94893E-01   384   0.555E+00    0.192E-01
DAV:   2    -0.644653383592E+02   -0.10695E-02   -0.19621E-02   472   0.837E-01    0.120E-01
DAV:   3    -0.644650888769E+02    0.24948E-03   -0.11662E-03   448   0.228E-01    0.805E-02
DAV:   4    -0.644649415711E+02    0.14731E-03   -0.45215E-04   464   0.147E-01    0.159E-02
DAV:   5    -0.644649459914E+02   -0.44203E-05   -0.56949E-05   312   0.532E-02
   9 F= -.64464946E+02 E0= -.64420296E+02  d E =-.258347E-01
 curvature:  -0.57 expect dE=-0.357E-01 dE for cont linesearch -0.514E-05
 trial: gam= 0.85365 g(F)=  0.572E-01 g(S)=  0.499E-02 ort = 0.107E-02 (trialstep = 0.403E+00)
 search vector abs. value=  0.157E+00
 bond charge predicted
       N       E                     dE             d eps       ncg     rms          rms(c)
DAV:   1    -0.644759933465E+02   -0.11052E-01   -0.37675E+00   384   0.118E+01    0.742E-01
DAV:   2    -0.644786421647E+02   -0.26488E-02   -0.14863E-01   432   0.216E+00    0.525E-01
DAV:   3    -0.644623439783E+02    0.16298E-01   -0.23264E-02   432   0.788E-01    0.183E-01
DAV:   4    -0.644621431250E+02    0.20085E-03   -0.30375E-03   504   0.351E-01    0.858E-02
DAV:   5    -0.644620067755E+02    0.13635E-03   -0.87224E-04   480   0.162E-01    0.448E-02
DAV:   6    -0.644619746408E+02    0.32135E-04   -0.16559E-04   320   0.688E-02
  10 F= -.64461975E+02 E0= -.64413015E+02  d E =0.297135E-02
 trial-energy change:    0.002971  1 .order    0.002179   -0.025434    0.029793
 step:   0.1770(harm=  0.1855)  dis= 0.01040  next Energy=   -64.470466 (dE=-0.552E-02)
 bond charge predicted
       N       E                     dE             d eps       ncg     rms          rms(c)
DAV:   1    -0.644739292194E+02   -0.11922E-01   -0.11768E+00   384   0.657E+00    0.371E-01
DAV:   2    -0.644728736805E+02    0.10555E-02   -0.31544E-02   416   0.113E+00    0.242E-01
DAV:   3    -0.644708215018E+02    0.20522E-02   -0.44814E-03   416   0.407E-01    0.115E-01
DAV:   4    -0.644705926229E+02    0.22888E-03   -0.11975E-03   432   0.219E-01    0.391E-02
DAV:   5    -0.644705834644E+02    0.91585E-05   -0.12162E-04   384   0.744E-02
  11 F= -.64470583E+02 E0= -.64424553E+02  d E =-.563747E-02
 curvature:  -0.23 expect dE=-0.815E-02 dE for cont linesearch -0.867E-06
 trial: gam= 0.58730 g(F)=  0.297E-01 g(S)=  0.569E-02 ort = 0.769E-03 (trialstep = 0.358E+00)
 search vector abs. value=  0.904E-01
 bond charge predicted
       N       E                     dE             d eps       ncg     rms          rms(c)
DAV:   1    -0.644827915624E+02   -0.12199E-01   -0.15313E+00   384   0.689E+00    0.361E-01
DAV:   2    -0.644845874583E+02   -0.17959E-02   -0.37072E-02   432   0.113E+00    0.272E-01
DAV:   3    -0.644811199079E+02    0.34676E-02   -0.39408E-03   416   0.375E-01    0.105E-01
DAV:   4    -0.644809858312E+02    0.13408E-03   -0.11707E-03   464   0.240E-01    0.342E-02
DAV:   5    -0.644809604085E+02    0.25423E-04   -0.15329E-04   312   0.818E-02
  12 F= -.64480960E+02 E0= -.64434328E+02  d E =-.103769E-01
 trial-energy change:   -0.010377  1 .order   -0.010270   -0.012814   -0.007725
 step:   0.9006(harm=  0.9006)  dis= 0.03969  next Energy=   -64.486717 (dE=-0.161E-01)
 bond charge predicted
       N       E                     dE             d eps       ncg     rms          rms(c)
DAV:   1    -0.644924709430E+02   -0.11485E-01   -0.35373E+00   384   0.105E+01    0.580E-01
DAV:   2    -0.644980388198E+02   -0.55679E-02   -0.92839E-02   456   0.178E+00    0.445E-01
DAV:   3    -0.644879193209E+02    0.10119E-01   -0.96986E-03   416   0.578E-01    0.162E-01
DAV:   4    -0.644876896078E+02    0.22971E-03   -0.32547E-03   480   0.382E-01    0.752E-02
DAV:   5    -0.644875280758E+02    0.16153E-03   -0.59657E-04   448   0.142E-01    0.215E-02
DAV:   6    -0.644875483562E+02   -0.20280E-04   -0.52226E-05   304   0.507E-02
  13 F= -.64487548E+02 E0= -.64440327E+02  d E =-.169649E-01
 curvature:  -1.14 expect dE=-0.361E-01 dE for cont linesearch -0.329E-04
 trial: gam= 0.80654 g(F)=  0.218E-01 g(S)=  0.993E-02 ort = 0.162E-02 (trialstep = 0.452E+00)
 search vector abs. value=  0.932E-01
 bond charge predicted
       N       E                     dE             d eps       ncg     rms          rms(c)
DAV:   1    -0.645029339043E+02   -0.15406E-01   -0.22750E+00   384   0.850E+00    0.503E-01
DAV:   2    -0.645043337185E+02   -0.13998E-02   -0.60780E-02   432   0.152E+00    0.390E-01
DAV:   3    -0.644986732085E+02    0.56605E-02   -0.69090E-03   416   0.517E-01    0.180E-01
DAV:   4    -0.644980156730E+02    0.65754E-03   -0.28349E-03   488   0.358E-01    0.548E-02
DAV:   5    -0.644979776538E+02    0.38019E-04   -0.31315E-04   448   0.114E-01
  14 F= -.64497978E+02 E0= -.64450996E+02  d E =-.104293E-01
 trial-energy change:   -0.010429  1 .order   -0.010302   -0.014953   -0.005652
 step:   0.7274(harm=  0.7274)  dis= 0.02834  next Energy=   -64.499568 (dE=-0.120E-01)
 bond charge predicted
       N       E                     dE             d eps       ncg     rms          rms(c)
DAV:   1    -0.645017267482E+02   -0.37111E-02   -0.84286E-01   384   0.518E+00    0.303E-01
DAV:   2    -0.645020396316E+02   -0.31288E-03   -0.21804E-02   432   0.911E-01    0.235E-01
DAV:   3    -0.645001366760E+02    0.19030E-02   -0.24767E-03   432   0.307E-01    0.112E-01
DAV:   4    -0.644998719361E+02    0.26474E-03   -0.10707E-03   480   0.223E-01    0.297E-02
DAV:   5    -0.644998859787E+02   -0.14043E-04   -0.96393E-05   320   0.714E-02
  15 F= -.64499886E+02 E0= -.64452964E+02  d E =-.123376E-01
 curvature:  -1.03 expect dE=-0.942E-01 dE for cont linesearch -0.203E-06
 trial: gam= 2.97143 g(F)=  0.815E-01 g(S)=  0.104E-01 ort = 0.136E-03 (trialstep = 0.517E-01)
 search vector abs. value=  0.915E+00
 bond charge predicted
       N       E                     dE             d eps       ncg     rms          rms(c)
DAV:   1    -0.645056545149E+02   -0.57826E-02   -0.28839E-01   384   0.307E+00    0.218E-01
DAV:   2    -0.645056669433E+02   -0.12428E-04   -0.91506E-03   432   0.551E-01    0.184E-01
DAV:   3    -0.645042045118E+02    0.14624E-02   -0.13492E-03   432   0.204E-01    0.700E-02
DAV:   4    -0.645040880003E+02    0.11651E-03   -0.34093E-04   384   0.132E-01    0.164E-02
DAV:   5    -0.645041061350E+02   -0.18135E-04   -0.39517E-05   304   0.484E-02
  16 F= -.64504106E+02 E0= -.64457151E+02  d E =-.422016E-02
 trial-energy change:   -0.004220  1 .order   -0.004142   -0.004766   -0.003518
 step:   0.1973(harm=  0.1973)  dis= 0.02286  next Energy=   -64.508990 (dE=-0.910E-02)
 bond charge predicted
       N       E                     dE             d eps       ncg     rms          rms(c)
DAV:   1    -0.645220590410E+02   -0.17971E-01   -0.22921E+00   384   0.864E+00    0.635E-01
DAV:   2    -0.645233736613E+02   -0.13146E-02   -0.81760E-02   432   0.161E+00    0.499E-01
DAV:   3    -0.645102573330E+02    0.13116E-01   -0.10835E-02   432   0.587E-01    0.200E-01
DAV:   4    -0.645095299312E+02    0.72740E-03   -0.39774E-03   480   0.414E-01    0.971E-02
DAV:   5    -0.645092282124E+02    0.30172E-03   -0.10888E-03   432   0.187E-01    0.416E-02
DAV:   6    -0.645092174369E+02    0.10775E-04   -0.60893E-05   280   0.508E-02
  17 F= -.64509217E+02 E0= -.64462454E+02  d E =-.933146E-02
 curvature:  -0.98 expect dE=-0.314E-01 dE for cont linesearch -0.125E-06
 trial: gam= 0.31464 g(F)=  0.236E-01 g(S)=  0.852E-02 ort =-0.342E-03 (trialstep = 0.808E-01)
 search vector abs. value=  0.122E+00
 bond charge predicted
       N       E                     dE             d eps       ncg     rms          rms(c)
DAV:   1    -0.645127481585E+02   -0.35199E-02   -0.89264E-02   384   0.177E+00    0.153E-01
DAV:   2    -0.645125587793E+02    0.18938E-03   -0.37316E-03   416   0.333E-01    0.123E-01
DAV:   3    -0.645118481739E+02    0.71061E-03   -0.64369E-04   416   0.138E-01    0.461E-02
DAV:   4    -0.645118084535E+02    0.39720E-04   -0.13243E-04   336   0.884E-02
  18 F= -.64511808E+02 E0= -.64464721E+02  d E =-.259102E-02
 ZBRENT: can't locate minimum, use default step
 trial-energy change:   -0.002591  1 .order   -0.002506   -0.002583   -0.002429
 step:   0.3232(harm=  1.3501)  dis= 0.01134  next Energy=   -64.530804 (dE=-0.216E-01)
 bond charge predicted
       N       E                     dE             d eps       ncg     rms          rms(c)
DAV:   1    -0.645261037762E+02   -0.14256E-01   -0.80120E-01   384   0.529E+00    0.463E-01
DAV:   2    -0.645248709409E+02    0.12328E-02   -0.35864E-02   416   0.102E+00    0.355E-01
DAV:   3    -0.645182008838E+02    0.66701E-02   -0.55979E-03   416   0.403E-01    0.139E-01
DAV:   4    -0.645177070250E+02    0.49386E-03   -0.15476E-03   480   0.287E-01    0.418E-02
DAV:   5    -0.645176708593E+02    0.36166E-04   -0.16936E-04   280   0.924E-02
  19 F= -.64517671E+02 E0= -.64470954E+02  d E =-.845342E-02
 curvature:  -0.89 expect dE=-0.165E-01 dE for cont linesearch -0.242E-02
 ZBRENT: increasing intervall
 opt :   0.8079  next Energy=   -64.520742 (dE=-0.115E-01)
 bond charge predicted
       N       E                     dE             d eps       ncg     rms          rms(c)
DAV:   1    -0.645577630987E+02   -0.40056E-01   -0.32733E+00   384   0.106E+01    0.960E-01
DAV:   2    -0.645539620228E+02    0.38011E-02   -0.41020E-01   432   0.210E+00    0.675E-01
DAV:   3    -0.645250447692E+02    0.28917E-01   -0.35543E-02   424   0.806E-01    0.291E-01
DAV:   4    -0.645243960678E+02    0.64870E-03   -0.12796E-02   480   0.726E-01    0.222E-01
DAV:   5    -0.645223898928E+02    0.20062E-02   -0.20880E-03   432   0.255E-01    0.708E-02
DAV:   6    -0.645222858466E+02    0.10405E-03   -0.56605E-04   432   0.141E-01    0.298E-02
DAV:   7    -0.645223782589E+02   -0.92412E-04   -0.55608E-05   320   0.494E-02
  20 F= -.64522378E+02 E0= -.64475399E+02  d E =-.131608E-01
 curvature:  -1.14 expect dE=-0.568E-01 dE for cont linesearch -0.265E-06
 trial: gam= 1.62554 g(F)=  0.404E-01 g(S)=  0.965E-02 ort = 0.169E-03 (trialstep = 0.740E-01)
 search vector abs. value=  0.374E+00
 bond charge predicted
       N       E                     dE             d eps       ncg     rms          rms(c)
DAV:   1    -0.645285804182E+02   -0.62946E-02   -0.21605E-01   400   0.271E+00    0.259E-01
DAV:   2    -0.645279349507E+02    0.64547E-03   -0.97885E-03   432   0.512E-01    0.182E-01
DAV:   3    -0.645262883536E+02    0.16466E-02   -0.15396E-03   448   0.210E-01    0.795E-02
DAV:   4    -0.645261239757E+02    0.16438E-03   -0.62611E-04   464   0.181E-01    0.172E-02
DAV:   5    -0.645261503920E+02   -0.26416E-04   -0.44707E-05   296   0.547E-02
  21 F= -.64526150E+02 E0= -.64479293E+02  d E =-.377213E-02
 ZBRENT: can't locate minimum, use default step
 trial-energy change:   -0.003772  1 .order   -0.003567   -0.003723   -0.003411
 step:   0.2962(harm=  0.8845)  dis= 0.01662  next Energy=   -64.544615 (dE=-0.222E-01)
 bond charge predicted
       N       E                     dE             d eps       ncg     rms          rms(c)
DAV:   1    -0.645587572627E+02   -0.32633E-01   -0.19419E+00   392   0.809E+00    0.829E-01
DAV:   2    -0.645557304462E+02    0.30268E-02   -0.10603E-01   448   0.164E+00    0.562E-01
DAV:   3    -0.645370197152E+02    0.18711E-01   -0.15078E-02   456   0.673E-01    0.246E-01
DAV:   4    -0.645357994423E+02    0.12203E-02   -0.80835E-03   480   0.623E-01    0.149E-01
DAV:   5    -0.645349611108E+02    0.83833E-03   -0.13025E-03   432   0.210E-01    0.433E-02
DAV:   6    -0.645349914317E+02   -0.30321E-04   -0.23130E-04   320   0.105E-01
  22 F= -.64534991E+02 E0= -.64489096E+02  d E =-.126132E-01
 curvature:  -1.56 expect dE=-0.757E-01 dE for cont linesearch -0.417E-02
 ZBRENT: increasing intervall
 opt :   0.7404  next Energy=   -64.542652 (dE=-0.203E-01)
 bond charge predicted
       N       E                     dE             d eps       ncg     rms          rms(c)
DAV:   1    -0.646445896576E+02   -0.10963E+00   -0.81027E+00   384   0.161E+01    0.176E+00
DAV:   2    -0.646338473213E+02    0.10742E-01   -0.17581E+00   432   0.347E+00    0.104E+00
DAV:   3    -0.645589905989E+02    0.74857E-01   -0.60078E-02   440   0.142E+00    0.570E-01
DAV:   4    -0.645673676240E+02   -0.83770E-02   -0.15209E-01   488   0.156E+00    0.809E-01
DAV:   5    -0.645436175723E+02    0.23750E-01   -0.69656E-02   416   0.688E-01    0.106E-01
DAV:   6    -0.645442665472E+02   -0.64897E-03   -0.30526E-03   496   0.320E-01    0.123E-01
DAV:   7    -0.645437911256E+02    0.47542E-03   -0.90166E-04   432   0.151E-01    0.223E-02
DAV:   8    -0.645439831859E+02   -0.19206E-03   -0.86695E-05   296   0.475E-02    0.233E-02
DAV:   9    -0.645441511986E+02   -0.16801E-03   -0.67091E-05   304   0.373E-02    0.113E-02
DAV:  10    -0.645443042943E+02   -0.15310E-03   -0.36194E-05   272   0.287E-02    0.561E-03
DAV:  11    -0.645444261178E+02   -0.12182E-03   -0.35292E-05   280   0.223E-02    0.625E-03
DAV:  12    -0.645444569985E+02   -0.30881E-04   -0.10662E-05   320   0.135E-02
  23 F= -.64544457E+02 E0= -.64498748E+02  d E =-.220787E-01
 curvature:  -2.86 expect dE=-0.539E+00 dE for cont linesearch -0.373E-03
 trial: gam= 3.69350 g(F)=  0.182E+00 g(S)=  0.693E-02 ort = 0.698E-02 (trialstep = 0.145E-01)
 search vector abs. value=  0.535E+01
 bond charge predicted
       N       E                     dE             d eps       ncg     rms          rms(c)
DAV:   1    -0.645492162308E+02   -0.47901E-02   -0.11836E-01   384   0.201E+00    0.218E-01
DAV:   2    -0.645487809378E+02    0.43529E-03   -0.60512E-03   432   0.420E-01    0.160E-01
DAV:   3    -0.645475086986E+02    0.12722E-02   -0.10297E-03   416   0.181E-01    0.609E-02
DAV:   4    -0.645474038774E+02    0.10482E-03   -0.30493E-04   368   0.133E-01    0.131E-02
DAV:   5    -0.645474015428E+02    0.23346E-05   -0.37077E-05   312   0.575E-02
  24 F= -.64547402E+02 E0= -.64501950E+02  d E =-.294454E-02
 ZBRENT: can't locate minimum, use default step
 trial-energy change:   -0.002945  1 .order   -0.002984   -0.003110   -0.002859
 step:   0.0581(harm=  0.1803)  dis= 0.01193  next Energy=   -64.563771 (dE=-0.193E-01)
 bond charge predicted
       N       E                     dE             d eps       ncg     rms          rms(c)
DAV:   1    -0.645718743937E+02   -0.24471E-01   -0.10634E+00   384   0.600E+00    0.677E-01
DAV:   2    -0.645699306469E+02    0.19437E-02   -0.59725E-02   416   0.130E+00    0.476E-01
DAV:   3    -0.645564212429E+02    0.13509E-01   -0.93048E-03   432   0.560E-01    0.187E-01
DAV:   4    -0.645557780260E+02    0.64322E-03   -0.44696E-03   496   0.472E-01    0.117E-01
DAV:   5    -0.645552073675E+02    0.57066E-03   -0.96033E-04   416   0.185E-01    0.253E-02
DAV:   6    -0.645552551828E+02   -0.47815E-04   -0.82343E-05   296   0.669E-02
  25 F= -.64555255E+02 E0= -.64510351E+02  d E =-.107982E-01
 curvature:  -1.03 expect dE=-0.111E+00 dE for cont linesearch -0.446E-02
 ZBRENT: increasing intervall
 opt :   0.1452  next Energy=   -64.564632 (dE=-0.202E-01)
 bond charge predicted
       N       E                     dE             d eps       ncg     rms          rms(c)
DAV:   1    -0.646371791891E+02   -0.81972E-01   -0.45194E+00   384   0.120E+01    0.143E+00
DAV:   2    -0.646311851528E+02    0.59940E-02   -0.11470E+00   432   0.275E+00    0.876E-01
DAV:   3    -0.645759602498E+02    0.55225E-01   -0.38976E-02   432   0.115E+00    0.436E-01
DAV:   4    -0.645813321300E+02   -0.53719E-02   -0.39245E-02   480   0.119E+00    0.610E-01
DAV:   5    -0.645672799597E+02    0.14052E-01   -0.11664E-02   416   0.516E-01    0.105E-01
DAV:   6    -0.645674278200E+02   -0.14786E-03   -0.22262E-03   496   0.263E-01    0.936E-02
DAV:   7    -0.645672015063E+02    0.22631E-03   -0.42994E-04   384   0.106E-01    0.148E-02
DAV:   8    -0.645673647166E+02   -0.16321E-03   -0.43362E-05   264   0.365E-02    0.191E-02
DAV:   9    -0.645674597991E+02   -0.95082E-04   -0.41591E-05   320   0.283E-02
  26 F= -.64567460E+02 E0= -.64521951E+02  d E =-.230028E-01
 curvature:  -2.16 expect dE=-0.117E+00 dE for cont linesearch -0.592E-02
 ZBRENT: increasing intervall
 opt :   0.3193  next Energy=   -64.583093 (dE=-0.386E-01)
 bond charge predicted
       N       E                     dE             d eps       ncg     rms          rms(c)
DAV:   1    -0.648754421960E+02   -0.30808E+00   -0.18023E+01   384   0.240E+01    0.288E+00
DAV:   2    -0.647721381902E+02    0.10330E+00   -0.57814E+00   424   0.564E+00    0.143E+00
DAV:   3    -0.646302044906E+02    0.14193E+00   -0.10795E-01   408   0.219E+00    0.904E-01
DAV:   4    -0.646558821036E+02   -0.25678E-01   -0.10005E+00   488   0.237E+00    0.147E+00
DAV:   5    -0.645895331657E+02    0.66349E-01   -0.85447E-01   424   0.157E+00    0.441E-01
DAV:   6    -0.645816182347E+02    0.79149E-02   -0.39518E-03   416   0.392E-01    0.292E-01
DAV:   7    -0.645777637023E+02    0.38545E-02   -0.19140E-03   432   0.207E-01    0.126E-01
DAV:   8    -0.645773690140E+02    0.39469E-03   -0.10332E-03   472   0.157E-01    0.201E-02
DAV:   9    -0.645775821833E+02   -0.21317E-03   -0.15782E-04   288   0.791E-02    0.148E-02
DAV:  10    -0.645778042631E+02   -0.22208E-03   -0.96330E-05   280   0.535E-02    0.971E-03
DAV:  11    -0.645778741903E+02   -0.69927E-04   -0.16649E-05   280   0.247E-02
  27 F= -.64577874E+02 E0= -.64533104E+02  d E =-.334172E-01
 curvature:  -5.70 expect dE=-0.620E+00 dE for cont linesearch -0.345E-04
 trial: gam= 0.82039 g(F)=  0.876E-01 g(S)=  0.211E-01 ort = 0.568E-02 (trialstep = 0.755E-01)
 search vector abs. value=  0.372E+01
 bond charge predicted
       N       E                     dE             d eps       ncg     rms          rms(c)
DAV:   1    -0.646214154336E+02   -0.43611E-01   -0.22804E+00   400   0.850E+00    0.101E+00
DAV:   2    -0.646187798816E+02    0.26356E-02   -0.38712E-01   432   0.190E+00    0.675E-01
DAV:   3    -0.645894467515E+02    0.29333E-01   -0.20326E-02   416   0.846E-01    0.287E-01
DAV:   4    -0.645894956728E+02   -0.48921E-04   -0.13527E-02   496   0.759E-01    0.285E-01
DAV:   5    -0.645861234539E+02    0.33722E-02   -0.40746E-03   416   0.336E-01    0.371E-02
DAV:   6    -0.645862268174E+02   -0.10336E-03   -0.30767E-04   400   0.116E-01    0.411E-02
DAV:   7    -0.645862399694E+02   -0.13152E-04   -0.80907E-05   296   0.532E-02
  28 F= -.64586240E+02 E0= -.64541690E+02  d E =-.836578E-02
 ZBRENT: can't locate minimum, use default step
 trial-energy change:   -0.008366  1 .order   -0.008421   -0.008555   -0.008287
 step:   0.3019(harm=  2.4097)  dis= 0.04987  next Energy=   -64.714441 (dE=-0.137E+00)
 bond charge predicted
       N       E                     dE             d eps       ncg     rms          rms(c)
DAV:   1    -0.649450141006E+02   -0.35879E+00   -0.20709E+01   384   0.255E+01    0.310E+00
DAV:   2    -0.648244582414E+02    0.12056E+00   -0.63142E+00   432   0.593E+00    0.151E+00
DAV:   3    -0.646709224197E+02    0.15354E+00   -0.12865E-01   416   0.239E+00    0.961E-01
DAV:   4    -0.646730832359E+02   -0.21608E-02   -0.85235E-01   496   0.245E+00    0.136E+00
DAV:   5    -0.646286754804E+02    0.44408E-01   -0.82445E-01   432   0.163E+00    0.523E-01
DAV:   6    -0.646140195869E+02    0.14656E-01   -0.58299E-03   400   0.436E-01    0.312E-01
DAV:   7    -0.646100569242E+02    0.39627E-02   -0.16994E-03   448   0.196E-01    0.172E-01
DAV:   8    -0.646092310849E+02    0.82584E-03   -0.27737E-03   424   0.255E-01    0.551E-02
DAV:   9    -0.646093058016E+02   -0.74717E-04   -0.52055E-04   424   0.129E-01
  29 F= -.64609306E+02 E0= -.64565050E+02  d E =-.314316E-01
 curvature:  -7.29 expect dE=-0.666E+00 dE for cont linesearch -0.264E-01
 ZBRENT: increasing intervall
 opt :   0.7548  next Energy=   -64.664562 (dE=-0.867E-01)
 bond charge predicted
       N       E                     dE             d eps       ncg     rms          rms(c)
DAV:   1    -0.658570949385E+02   -0.12479E+01   -0.85218E+01   384   0.542E+01    0.537E+00
DAV:   2    -0.649251561077E+02    0.93194E+00   -0.81394E+00   416   0.112E+01    0.241E+00
DAV:   3    -0.647124425840E+02    0.21271E+00   -0.32459E-01   432   0.414E+00    0.138E+00
DAV:   4    -0.646924868155E+02    0.19956E-01   -0.47258E-01   488   0.309E+00    0.122E+00
DAV:   5    -0.646779374667E+02    0.14549E-01   -0.56670E-01   440   0.199E+00    0.651E-01
DAV:   6    -0.646505740635E+02    0.27363E-01   -0.22404E-02   416   0.801E-01    0.260E-01
DAV:   7    -0.646485430922E+02    0.20310E-02   -0.26925E-03   464   0.318E-01    0.140E-01
DAV:   8    -0.646488848960E+02   -0.34180E-03   -0.38955E-03   432   0.333E-01    0.606E-02
DAV:   9    -0.646492777122E+02   -0.39282E-03   -0.64687E-04   432   0.153E-01    0.387E-02
DAV:  10    -0.646496129275E+02   -0.33522E-03   -0.32150E-04   352   0.841E-02    0.180E-02
DAV:  11    -0.646497879488E+02   -0.17502E-03   -0.11835E-04   336   0.542E-02    0.293E-02
DAV:  12    -0.646499091333E+02   -0.12118E-03   -0.17453E-04   360   0.599E-02    0.768E-03
DAV:  13    -0.646499398758E+02   -0.30743E-04   -0.23571E-05   336   0.278E-02
  30 F= -.64649940E+02 E0= -.64607337E+02  d E =-.720657E-01
 curvature: -15.28 expect dE=-0.128E+01 dE for cont linesearch -0.264E-01
 ZBRENT: increasing intervall
 opt :   1.6605  next Energy=   -64.690204 (dE=-0.112E+00)
 bond charge predicted
       N       E                     dE             d eps       ncg     rms          rms(c)
DAV:   1    -0.686248398297E+02   -0.39749E+01   -0.42428E+02   384   0.143E+02    0.105E+01
DAV:   2    -0.653717657066E+02    0.32531E+01   -0.19693E+01   424   0.253E+01    0.497E+00
DAV:   3    -0.648285115118E+02    0.54325E+00   -0.14537E+00   448   0.864E+00    0.247E+00
DAV:   4    -0.647075278098E+02    0.12098E+00   -0.37635E-01   432   0.424E+00    0.793E-01
DAV:   5    -0.646972255381E+02    0.10302E-01   -0.50276E-02   424   0.156E+00    0.314E-01
DAV:   6    -0.646953066784E+02    0.19189E-02   -0.11373E-02   448   0.675E-01    0.140E-01
DAV:   7    -0.646960556706E+02   -0.74899E-03   -0.36776E-03   480   0.327E-01    0.117E-01
DAV:   8    -0.646956759396E+02    0.37973E-03   -0.12656E-03   416   0.183E-01    0.495E-02
DAV:   9    -0.646962947997E+02   -0.61886E-03   -0.15410E-03   376   0.175E-01    0.343E-02
DAV:  10    -0.646965103600E+02   -0.21556E-03   -0.39086E-04   416   0.861E-02    0.276E-02
DAV:  11    -0.646965946315E+02   -0.84271E-04   -0.21753E-04   376   0.687E-02
  31 F= -.64696595E+02 E0= -.64660116E+02  d E =-.118720E+00
 curvature: -23.27 expect dE=-0.328E+01 dE for cont linesearch -0.930E-03
 trial: gam= 1.03867 g(F)=  0.108E+00 g(S)=  0.327E-01 ort = 0.122E-01 (trialstep = 0.349E+00)
 search vector abs. value=  0.417E+01
 bond charge predicted
       N       E                     dE             d eps       ncg     rms          rms(c)
DAV:   1    -0.655270522357E+02   -0.83054E+00   -0.56601E+01   384   0.442E+01    0.437E+00
DAV:   2    -0.649185991213E+02    0.60845E+00   -0.89105E+00   432   0.911E+00    0.190E+00
DAV:   3    -0.647864197635E+02    0.13218E+00   -0.17808E-01   448   0.314E+00    0.116E+00
DAV:   4    -0.647353110086E+02    0.51109E-01   -0.18873E-01   464   0.233E+00    0.586E-01
DAV:   5    -0.647245369771E+02    0.10774E-01   -0.73396E-02   408   0.111E+00    0.243E-01
DAV:   6    -0.647217971056E+02    0.27399E-02   -0.49079E-03   384   0.358E-01    0.115E-01
DAV:   7    -0.647221610550E+02   -0.36395E-03   -0.36557E-03   432   0.230E-01    0.986E-02
DAV:   8    -0.647222630313E+02   -0.10198E-03   -0.17980E-03   392   0.150E-01    0.301E-02
DAV:   9    -0.647225775767E+02   -0.31455E-03   -0.22379E-04   352   0.856E-02    0.297E-02
DAV:  10    -0.647227366589E+02   -0.15908E-03   -0.17112E-04   376   0.515E-02    0.110E-02
DAV:  11    -0.647228695226E+02   -0.13286E-03   -0.11506E-04   352   0.428E-02    0.722E-03
DAV:  12    -0.647228936646E+02   -0.24142E-04   -0.16925E-05   312   0.198E-02
  32 F= -.64722894E+02 E0= -.64686940E+02  d E =-.262990E-01
 trial-energy change:   -0.026299  1 .order   -0.027354   -0.053609   -0.001100
 step:   0.3577(harm=  0.3566)  dis= 0.06068  next Energy=   -64.722907 (dE=-0.263E-01)
 bond charge predicted
       N       E                     dE             d eps       ncg     rms          rms(c)
DAV:   1    -0.647233496002E+02   -0.48008E-03   -0.31676E-02   432   0.107E+00    0.100E-01
DAV:   2    -0.647230286969E+02    0.32090E-03   -0.16361E-03   424   0.197E-01    0.495E-02
DAV:   3    -0.647229477820E+02    0.80915E-04   -0.12663E-04   272   0.697E-02
  33 F= -.64722948E+02 E0= -.64687028E+02  d E =-.263532E-01
 curvature:  -4.75 expect dE=-0.407E+00 dE for cont linesearch -0.142E-03
 trial: gam= 0.48137 g(F)=  0.709E-01 g(S)=  0.147E-01 ort = 0.111E-01 (trialstep = 0.351E+00)
 search vector abs. value=  0.106E+01
 bond charge predicted
       N       E                     dE             d eps       ncg     rms          rms(c)
DAV:   1    -0.648835255850E+02   -0.16050E+00   -0.13411E+01   400   0.220E+01    0.210E+00
DAV:   2    -0.647929850556E+02    0.90541E-01   -0.17816E+00   416   0.411E+00    0.103E+00
DAV:   3    -0.647484258077E+02    0.44559E-01   -0.50393E-02   440   0.160E+00    0.625E-01
DAV:   4    -0.647355349514E+02    0.12891E-01   -0.51299E-02   496   0.144E+00    0.300E-01
DAV:   5    -0.647327822429E+02    0.27527E-02   -0.19977E-02   400   0.724E-01    0.140E-01
DAV:   6    -0.647319522508E+02    0.82999E-03   -0.11576E-03   400   0.191E-01    0.775E-02
DAV:   7    -0.647318007040E+02    0.15155E-03   -0.74521E-04   352   0.116E-01    0.258E-02
DAV:   8    -0.647321038927E+02   -0.30319E-03   -0.16719E-04   304   0.665E-02    0.104E-02
DAV:   9    -0.647322483197E+02   -0.14443E-03   -0.43647E-05   352   0.349E-02    0.101E-02
DAV:  10    -0.647324012335E+02   -0.15291E-03   -0.66261E-05   296   0.294E-02    0.704E-03
DAV:  11    -0.647324717077E+02   -0.70474E-04   -0.48767E-05   336   0.258E-02
  34 F= -.64732472E+02 E0= -.64701553E+02  d E =-.952393E-02
 trial-energy change:   -0.009524  1 .order   -0.010665   -0.031911    0.010580
 step:   0.2522(harm=  0.2636)  dis= 0.02033  next Energy=   -64.733987 (dE=-0.110E-01)
 bond charge predicted
       N       E                     dE             d eps       ncg     rms          rms(c)
DAV:   1    -0.647438797525E+02   -0.11479E-01   -0.10584E+00   400   0.641E+00    0.497E-01
DAV:   2    -0.647358494202E+02    0.80303E-02   -0.32821E-02   392   0.102E+00    0.253E-01
DAV:   3    -0.647343755273E+02    0.14739E-02   -0.25442E-03   496   0.367E-01    0.134E-01
DAV:   4    -0.647338147998E+02    0.56073E-03   -0.12322E-03   440   0.246E-01    0.340E-02
DAV:   5    -0.647337869428E+02    0.27857E-04   -0.95326E-05   312   0.805E-02
  35 F= -.64733787E+02 E0= -.64701733E+02  d E =-.108392E-01
 curvature:  -1.52 expect dE=-0.103E+00 dE for cont linesearch -0.137E-05
 trial: gam= 0.70496 g(F)=  0.656E-01 g(S)=  0.274E-02 ort = 0.980E-03 (trialstep = 0.331E+00)
 search vector abs. value=  0.598E+00
 bond charge predicted
       N       E                     dE             d eps       ncg     rms          rms(c)
DAV:   1    -0.648261865412E+02   -0.92372E-01   -0.65122E+00   392   0.161E+01    0.148E+00
DAV:   2    -0.647719226349E+02    0.54264E-01   -0.60349E-01   424   0.286E+00    0.706E-01
DAV:   3    -0.647523081514E+02    0.19614E-01   -0.22086E-02   432   0.100E+00    0.420E-01
DAV:   4    -0.647470538569E+02    0.52543E-02   -0.21135E-02   472   0.954E-01    0.174E-01
DAV:   5    -0.647457737040E+02    0.12802E-02   -0.67147E-03   432   0.467E-01    0.680E-02
DAV:   6    -0.647456468179E+02    0.12689E-03   -0.56529E-04   400   0.131E-01    0.226E-02
DAV:   7    -0.647457363421E+02   -0.89524E-04   -0.34939E-05   320   0.350E-02
  36 F= -.64745736E+02 E0= -.64715844E+02  d E =-.119494E-01
 trial-energy change:   -0.011949  1 .order   -0.011885   -0.022849   -0.000921
 step:   0.3451(harm=  0.3451)  dis= 0.01954  next Energy=   -64.745691 (dE=-0.119E-01)
 bond charge predicted
       N       E                     dE             d eps       ncg     rms          rms(c)
DAV:   1    -0.647460068295E+02   -0.36001E-03   -0.11442E-02   400   0.688E-01    0.511E-02
DAV:   2    -0.647459545395E+02    0.52290E-04   -0.32510E-04   368   0.105E-01
  37 F= -.64745955E+02 E0= -.64716122E+02  d E =-.121676E-01
 curvature:  -1.50 expect dE=-0.347E-01 dE for cont linesearch -0.525E-04
 trial: gam= 0.39332 g(F)=  0.207E-01 g(S)=  0.247E-02 ort = 0.458E-02 (trialstep = 0.334E+00)
 search vector abs. value=  0.119E+00
 bond charge predicted
       N       E                     dE             d eps       ncg     rms          rms(c)
DAV:   1    -0.647625665963E+02   -0.16560E-01   -0.12105E+00   384   0.754E+00    0.591E-01
DAV:   2    -0.647528194793E+02    0.97471E-02   -0.39012E-02   416   0.112E+00    0.294E-01
DAV:   3    -0.647504761888E+02    0.23433E-02   -0.33602E-03   472   0.417E-01    0.170E-01
DAV:   4    -0.647495650427E+02    0.91115E-03   -0.20556E-03   464   0.334E-01    0.369E-02
DAV:   5    -0.647496097587E+02   -0.44716E-04   -0.21752E-04   400   0.113E-01
  38 F= -.64749610E+02 E0= -.64721003E+02  d E =-.365522E-02
 trial-energy change:   -0.003655  1 .order   -0.004029   -0.008337    0.000279
 step:   0.3232(harm=  0.3232)  dis= 0.00731  next Energy=   -64.749988 (dE=-0.403E-02)
 bond charge predicted
       N       E                     dE             d eps       ncg     rms          rms(c)
DAV:   1    -0.647496906880E+02   -0.12565E-03   -0.12792E-03   408   0.245E-01    0.207E-02
DAV:   2    -0.647497218206E+02   -0.31133E-04   -0.34889E-05   288   0.389E-02
  39 F= -.64749722E+02 E0= -.64720771E+02  d E =-.376728E-02
 curvature:  -0.77 expect dE=-0.164E-01 dE for cont linesearch -0.521E-06
 trial: gam= 0.89308 g(F)=  0.187E-01 g(S)=  0.245E-02 ort = 0.284E-03 (trialstep = 0.332E+00)
 search vector abs. value=  0.117E+00
 bond charge predicted
       N       E                     dE             d eps       ncg     rms          rms(c)
DAV:   1    -0.647713496447E+02   -0.21659E-01   -0.11755E+00   416   0.756E+00    0.659E-01
DAV:   2    -0.647564639224E+02    0.14886E-01   -0.57615E-02   416   0.115E+00    0.291E-01
DAV:   3    -0.647535206095E+02    0.29433E-02   -0.40547E-03   408   0.412E-01    0.165E-01
DAV:   4    -0.647527009681E+02    0.81964E-03   -0.22789E-03   480   0.331E-01    0.402E-02
DAV:   5    -0.647527005864E+02    0.38171E-06   -0.38895E-04   448   0.130E-01
  40 F= -.64752701E+02 E0= -.64722981E+02  d E =-.297877E-02
 trial-energy change:   -0.002979  1 .order   -0.002745   -0.007116    0.001625
 step:   0.2702(harm=  0.2702)  dis= 0.00594  next Energy=   -64.752618 (dE=-0.290E-02)
 bond charge predicted
       N       E                     dE             d eps       ncg     rms          rms(c)
DAV:   1    -0.647533932296E+02   -0.69226E-03   -0.40697E-02   448   0.141E+00    0.113E-01
DAV:   2    -0.647528893998E+02    0.50383E-03   -0.12008E-03   408   0.194E-01    0.489E-02
DAV:   3    -0.647528883306E+02    0.10691E-05   -0.75454E-05   288   0.652E-02
  41 F= -.64752888E+02 E0= -.64723041E+02  d E =-.316651E-02
 curvature:  -0.74 expect dE=-0.542E-02 dE for cont linesearch -0.223E-05
 trial: gam= 0.32516 g(F)=  0.525E-02 g(S)=  0.211E-02 ort =-0.595E-03 (trialstep = 0.320E+00)
 search vector abs. value=  0.193E-01
 bond charge predicted
       N       E                     dE             d eps       ncg     rms          rms(c)
DAV:   1    -0.647560955375E+02   -0.32061E-02   -0.17315E-01   448   0.299E+00    0.207E-01
DAV:   2    -0.647547840003E+02    0.13115E-02   -0.44624E-03   416   0.389E-01    0.978E-02
DAV:   3    -0.647545698719E+02    0.21413E-03   -0.32844E-04   304   0.148E-01    0.552E-02
DAV:   4    -0.647545098601E+02    0.60012E-04   -0.28728E-04   336   0.118E-01
  42 F= -.64754510E+02 E0= -.64724298E+02  d E =-.162153E-02
 trial-energy change:   -0.001622  1 .order   -0.001396   -0.002289   -0.000504
 step:   0.4097(harm=  0.4097)  dis= 0.00401  next Energy=   -64.754356 (dE=-0.147E-02)
 bond charge predicted
       N       E                     dE             d eps       ncg     rms          rms(c)
DAV:   1    -0.647547649125E+02   -0.19504E-03   -0.14139E-02   448   0.858E-01    0.600E-02
DAV:   2    -0.647546663853E+02    0.98527E-04   -0.35278E-04   352   0.115E-01
  43 F= -.64754666E+02 E0= -.64724680E+02  d E =-.177805E-02
 curvature:  -0.55 expect dE=-0.448E-02 dE for cont linesearch -0.378E-04
 trial: gam= 1.06912 g(F)=  0.566E-02 g(S)=  0.244E-02 ort = 0.115E-02 (trialstep = 0.200E+00)
 search vector abs. value=  0.326E-01
 bond charge predicted
       N       E                     dE             d eps       ncg     rms          rms(c)
DAV:   1    -0.647576010078E+02   -0.28361E-02   -0.10779E-01   384   0.227E+00    0.203E-01
DAV:   2    -0.647562510966E+02    0.13499E-02   -0.50380E-03   416   0.393E-01    0.938E-02
DAV:   3    -0.647560595316E+02    0.19157E-03   -0.37505E-04   360   0.139E-01    0.552E-02
DAV:   4    -0.647559850753E+02    0.74456E-04   -0.16485E-04   304   0.992E-02
  44 F= -.64755985E+02 E0= -.64725095E+02  d E =-.131869E-02
 trial-energy change:   -0.001319  1 .order   -0.001383   -0.001864   -0.000902
 step:   0.3871(harm=  0.3871)  dis= 0.00497  next Energy=   -64.756472 (dE=-0.181E-02)
 bond charge predicted
       N       E                     dE             d eps       ncg     rms          rms(c)
DAV:   1    -0.647578391942E+02   -0.17797E-02   -0.95226E-02   384   0.214E+00    0.181E-01
DAV:   2    -0.647567323141E+02    0.11069E-02   -0.45075E-03   432   0.372E-01    0.813E-02
DAV:   3    -0.647565815827E+02    0.15073E-03   -0.30849E-04   296   0.125E-01    0.480E-02
DAV:   4    -0.647565307123E+02    0.50870E-04   -0.16457E-04   320   0.902E-02
  45 F= -.64756531E+02 E0= -.64725055E+02  d E =-.186433E-02
 curvature:  -0.68 expect dE=-0.572E-02 dE for cont linesearch -0.102E-04
 trial: gam= 1.01450 g(F)=  0.711E-02 g(S)=  0.133E-02 ort = 0.702E-03 (trialstep = 0.178E+00)
 search vector abs. value=  0.435E-01
 bond charge predicted
       N       E                     dE             d eps       ncg     rms          rms(c)
DAV:   1    -0.647588342707E+02   -0.22527E-02   -0.11024E-01   384   0.221E+00    0.167E-01
DAV:   2    -0.647581816131E+02    0.65266E-03   -0.36132E-03   408   0.348E-01    0.871E-02
DAV:   3    -0.647580211491E+02    0.16046E-03   -0.21931E-04   320   0.114E-01    0.515E-02
DAV:   4    -0.647579585573E+02    0.62592E-04   -0.21489E-04   304   0.106E-01
  46 F= -.64757959E+02 E0= -.64727069E+02  d E =-.142784E-02
 trial-energy change:   -0.001428  1 .order   -0.001339   -0.001631   -0.001047
 step:   0.4980(harm=  0.4980)  dis= 0.00762  next Energy=   -64.758809 (dE=-0.228E-02)
 bond charge predicted
       N       E                     dE             d eps       ncg     rms          rms(c)
DAV:   1    -0.647620550122E+02   -0.40339E-02   -0.35519E-01   384   0.397E+00    0.306E-01
DAV:   2    -0.647599158583E+02    0.21392E-02   -0.11662E-02   416   0.629E-01    0.158E-01
DAV:   3    -0.647593766238E+02    0.53923E-03   -0.79393E-04   408   0.209E-01    0.939E-02
DAV:   4    -0.647591510357E+02    0.22559E-03   -0.60044E-04   424   0.182E-01    0.179E-02
DAV:   5    -0.647591664914E+02   -0.15456E-04   -0.56971E-05   280   0.648E-02
  47 F= -.64759166E+02 E0= -.64729222E+02  d E =-.263578E-02
 curvature:  -1.18 expect dE=-0.105E-01 dE for cont linesearch -0.225E-04
 trial: gam= 1.17017 g(F)=  0.742E-02 g(S)=  0.146E-02 ort = 0.909E-03 (trialstep = 0.149E+00)
 search vector abs. value=  0.705E-01
 bond charge predicted
       N       E                     dE             d eps       ncg     rms          rms(c)
DAV:   1    -0.647617420325E+02   -0.25910E-02   -0.12515E-01   384   0.227E+00    0.189E-01
DAV:   2    -0.647606744064E+02    0.10676E-02   -0.43324E-03   416   0.382E-01    0.933E-02
DAV:   3    -0.647604901190E+02    0.18429E-03   -0.30611E-04   328   0.127E-01    0.563E-02
DAV:   4    -0.647604164888E+02    0.73630E-04   -0.20854E-04   312   0.101E-01
  48 F= -.64760416E+02 E0= -.64730380E+02  d E =-.125000E-02
 trial-energy change:   -0.001250  1 .order   -0.001200   -0.001484   -0.000915
 step:   0.3896(harm=  0.3896)  dis= 0.00776  next Energy=   -64.761103 (dE=-0.194E-02)
 bond charge predicted
       N       E                     dE             d eps       ncg     rms          rms(c)
DAV:   1    -0.647647708540E+02   -0.42807E-02   -0.32548E-01   384   0.366E+00    0.310E-01
DAV:   2    -0.647619760729E+02    0.27948E-02   -0.11762E-02   424   0.627E-01    0.153E-01
DAV:   3    -0.647614728680E+02    0.50320E-03   -0.91164E-04   416   0.209E-01    0.926E-02
DAV:   4    -0.647612585493E+02    0.21432E-03   -0.42941E-04   408   0.150E-01    0.171E-02
DAV:   5    -0.647612763240E+02   -0.17775E-04   -0.40578E-05   288   0.530E-02
  49 F= -.64761276E+02 E0= -.64731361E+02  d E =-.210983E-02
 curvature:  -1.38 expect dE=-0.172E-01 dE for cont linesearch -0.781E-05
 trial: gam= 1.49276 g(F)=  0.982E-02 g(S)=  0.262E-02 ort = 0.631E-03 (trialstep = 0.811E-01)
 search vector abs. value=  0.171E+00
 bond charge predicted
       N       E                     dE             d eps       ncg     rms          rms(c)
DAV:   1    -0.647630431439E+02   -0.17846E-02   -0.88840E-02   384   0.189E+00    0.147E-01
DAV:   2    -0.647624867913E+02    0.55635E-03   -0.25373E-03   400   0.291E-01    0.760E-02
DAV:   3    -0.647623665063E+02    0.12028E-03   -0.15017E-04   264   0.963E-02    0.446E-02
DAV:   4    -0.647623235920E+02    0.42914E-04   -0.14860E-04   288   0.830E-02
  50 F= -.64762324E+02 E0= -.64732527E+02  d E =-.104727E-02
 ZBRENT: can't locate minimum, use default step
 trial-energy change:   -0.001047  1 .order   -0.000972   -0.001086   -0.000857
 step:   0.3246(harm=  0.3853)  dis= 0.01026  next Energy=   -64.763855 (dE=-0.258E-02)
 bond charge predicted
       N       E                     dE             d eps       ncg     rms          rms(c)
DAV:   1    -0.647711801340E+02   -0.88136E-02   -0.80313E-01   384   0.569E+00    0.453E-01
DAV:   2    -0.647660834944E+02    0.50966E-02   -0.24176E-02   408   0.888E-01    0.235E-01
DAV:   3    -0.647649067801E+02    0.11767E-02   -0.17152E-03   448   0.300E-01    0.140E-01
DAV:   4    -0.647643979204E+02    0.50886E-03   -0.10785E-03   464   0.236E-01    0.268E-02
DAV:   5    -0.647644262533E+02   -0.28333E-04   -0.10327E-04   296   0.859E-02
  51 F= -.64764426E+02 E0= -.64735339E+02  d E =-.314993E-02
 curvature:  -2.37 expect dE=-0.171E-01 dE for cont linesearch -0.457E-03
 trial: gam= 0.11662 g(F)=  0.467E-02 g(S)=  0.253E-02 ort = 0.575E-02 (trialstep = 0.130E+00)
 search vector abs. value=  0.109E-01
 bond charge predicted
       N       E                     dE             d eps       ncg     rms          rms(c)
DAV:   1    -0.647654984992E+02   -0.11006E-02   -0.14258E-02   384   0.855E-01    0.531E-02
DAV:   2    -0.647654562076E+02    0.42292E-04   -0.35148E-04   416   0.123E-01
  52 F= -.64765456E+02 E0= -.64736145E+02  d E =-.102995E-02
 ZBRENT: can't locate minimum, use default step
 trial-energy change:   -0.001030  1 .order   -0.000980   -0.001022   -0.000938
 step:   0.5194(harm=  1.5856)  dis= 0.00277  next Energy=   -64.770664 (dE=-0.624E-02)
 bond charge predicted
       N       E                     dE             d eps       ncg     rms          rms(c)
DAV:   1    -0.647681986343E+02   -0.27001E-02   -0.12680E-01   384   0.255E+00    0.176E-01
DAV:   2    -0.647676103263E+02    0.58831E-03   -0.32535E-03   448   0.362E-01    0.984E-02
DAV:   3    -0.647674462385E+02    0.16409E-03   -0.28096E-04   296   0.138E-01    0.507E-02
DAV:   4    -0.647674129931E+02    0.33245E-04   -0.16939E-04   296   0.965E-02
  53 F= -.64767413E+02 E0= -.64737329E+02  d E =-.298674E-02
 curvature:  -0.51 expect dE=-0.178E-02 dE for cont linesearch -0.402E-03
 trial: gam= 0.17746 g(F)=  0.305E-02 g(S)=  0.450E-03 ort = 0.293E-02 (trialstep = 0.208E+00)
 search vector abs. value=  0.488E-02
 bond charge predicted
       N       E                     dE             d eps       ncg     rms          rms(c)
DAV:   1    -0.647681868431E+02   -0.74060E-03   -0.17173E-02   384   0.917E-01    0.473E-02
DAV:   2    -0.647681499070E+02    0.36936E-04   -0.35724E-04   448   0.128E-01
  54 F= -.64768150E+02 E0= -.64738188E+02  d E =-.736914E-03
 trial-energy change:   -0.000737  1 .order   -0.000712   -0.000835   -0.000589
 step:   0.7045(harm=  0.7045)  dis= 0.00307  next Energy=   -64.768829 (dE=-0.142E-02)
 bond charge predicted
       N       E                     dE             d eps       ncg     rms          rms(c)
DAV:   1    -0.647691046843E+02   -0.91784E-03   -0.97208E-02   384   0.219E+00    0.124E-01
DAV:   2    -0.647688417394E+02    0.26294E-03   -0.21250E-03   480   0.299E-01    0.660E-02
DAV:   3    -0.647687774977E+02    0.64242E-04   -0.11537E-04   288   0.806E-02
  55 F= -.64768777E+02 E0= -.64738516E+02  d E =-.136450E-02
 curvature:  -0.43 expect dE=-0.387E-02 dE for cont linesearch -0.396E-07
 trial: gam= 2.78886 g(F)=  0.764E-02 g(S)=  0.141E-02 ort = 0.213E-04 (trialstep = 0.318E-01)
 search vector abs. value=  0.472E-01
 bond charge predicted
       N       E                     dE             d eps       ncg     rms          rms(c)
DAV:   1    -0.647690230901E+02   -0.18135E-03   -0.35949E-03   384   0.427E-01    0.245E-02
DAV:   2    -0.647690137436E+02    0.93465E-05   -0.74108E-05   336   0.668E-02
  56 F= -.64769014E+02 E0= -.64738903E+02  d E =-.236246E-03
 ZBRENT: can't locate minimum, use default step
 trial-energy change:   -0.000236  1 .order   -0.000265   -0.000290   -0.000239
 step:   0.1272(harm=  0.1829)  dis= 0.00182  next Energy=   -64.769611 (dE=-0.833E-03)
 bond charge predicted
       N       E                     dE             d eps       ncg     rms          rms(c)
DAV:   1    -0.647695978900E+02   -0.57480E-03   -0.33460E-02   384   0.128E+00    0.698E-02
DAV:   2    -0.647695328831E+02    0.65007E-04   -0.70445E-04   480   0.182E-01
  57 F= -.64769533E+02 E0= -.64739757E+02  d E =-.755385E-03
 curvature:  -0.41 expect dE=-0.198E-02 dE for cont linesearch -0.129E-03
 trial: gam=-0.09110 g(F)=  0.365E-02 g(S)=  0.119E-02 ort = 0.386E-02 (trialstep = 0.509E-01)
 search vector abs. value=  0.453E-02
 reached required accuracy - stopping structural energy minimisation
 writing wavefunctions
Sun Mar  6 19:39:37 CST 2022
