Sun Mar  6 20:24:26 CST 2022
 running on   48 total cores
 distrk:  each k-point on   48 cores,    1 groups
 distr:  one band on   24 cores,    2 groups
 using from now: INCAR     
 vasp.5.3.5 31Mar14 (build Jan 11 2016 19:50:55) complex                        
  
 POSCAR found type information on POSCAR  B  C  Na
 POSCAR found :  3 types and       9 ions
 scaLAPACK will be used

 ----------------------------------------------------------------------------- 
|                                                                             |
|           W    W    AA    RRRRR   N    N  II  N    N   GGGG   !!!           |
|           W    W   A  A   R    R  NN   N  II  NN   N  G    G  !!!           |
|           W    W  A    A  R    R  N N  N  II  N N  N  G       !!!           |
|           W WW W  AAAAAA  RRRRR   N  N N  II  N  N N  G  GGG   !            |
|           WW  WW  A    A  R   R   N   NN  II  N   NN  G    G                |
|           W    W  A    A  R    R  N    N  II  N    N   GGGG   !!!           |
|                                                                             |
|      For optimal performance we recommend to set                            |
|        NCORE= 4 - approx SQRT( number of cores)                             |
|      NCORE specifies how many cores store one orbital (NPAR=cpu/NCORE).     |
|      This setting can  greatly improve the performance of VASP for DFT.     |
|      The default, NPAR=number of cores might be grossly inefficient         |
|      on modern multi-core architectures or massively parallel machines.     |
|      Do your own testing !!!!                                               |
|      Unfortunately you need to use the default for GW and RPA calculations. |
|      (for HF NCORE is supported but not extensively tested yet)             |
|                                                                             |
 ----------------------------------------------------------------------------- 

 LDA part: xc-table for Pade appr. of Perdew
 POSCAR, INCAR and KPOINTS ok, starting setup
 WARNING: small aliasing (wrap around) errors must be expected
 FFT: planning ...
 WAVECAR not read
 entering main loop
       N       E                     dE             d eps       ncg     rms          rms(c)
DAV:   1     0.285739972793E+03    0.28574E+03   -0.12202E+04   448   0.873E+02
DAV:   2    -0.136995585880E+02   -0.29944E+03   -0.29097E+03   592   0.242E+02
DAV:   3    -0.710501213347E+02   -0.57351E+02   -0.57022E+02   440   0.111E+02
DAV:   4    -0.735943957675E+02   -0.25443E+01   -0.25316E+01   552   0.314E+01
DAV:   5    -0.736465335697E+02   -0.52138E-01   -0.52057E-01   520   0.423E+00    0.134E+01
DAV:   6    -0.668812115470E+02    0.67653E+01   -0.75146E+00   504   0.177E+01    0.743E+00
DAV:   7    -0.642617414910E+02    0.26195E+01   -0.82430E+00   528   0.153E+01    0.245E+00
DAV:   8    -0.640527354253E+02    0.20901E+00   -0.46948E-01   472   0.405E+00    0.701E-01
DAV:   9    -0.639545217154E+02    0.98214E-01   -0.73594E-02   520   0.151E+00    0.388E-01
DAV:  10    -0.639371377689E+02    0.17384E-01   -0.21348E-02   552   0.789E-01    0.331E-01
DAV:  11    -0.639354600622E+02    0.16777E-02   -0.10119E-02   520   0.583E-01    0.158E-01
DAV:  12    -0.639360431672E+02   -0.58310E-03   -0.56043E-03   448   0.307E-01    0.144E-01
DAV:  13    -0.639375802042E+02   -0.15370E-02   -0.19639E-03   512   0.225E-01    0.729E-02
DAV:  14    -0.639395639037E+02   -0.19837E-02   -0.13862E-03   360   0.133E-01    0.522E-02
DAV:  15    -0.639436808970E+02   -0.41170E-02   -0.32884E-03   432   0.197E-01    0.608E-02
DAV:  16    -0.639452241982E+02   -0.15433E-02   -0.80572E-04   384   0.892E-02    0.341E-02
DAV:  17    -0.639460629658E+02   -0.83877E-03   -0.32162E-04   272   0.693E-02    0.158E-02
DAV:  18    -0.639464503084E+02   -0.38734E-03   -0.99671E-05   288   0.396E-02    0.118E-02
DAV:  19    -0.639466599799E+02   -0.20967E-03   -0.81545E-05   304   0.388E-02    0.135E-02
DAV:  20    -0.639467029261E+02   -0.42946E-04   -0.19026E-05   256   0.269E-02
   1 F= -.63946703E+02 E0= -.63890086E+02  d E =-.639467E+02
 curvature:   0.00 expect dE= 0.000E+00 dE for cont linesearch  0.000E+00
 trial: gam= 0.00000 g(F)=  0.987E+00 g(S)=  0.150E+00 ort = 0.000E+00 (trialstep = 0.100E+01)
 search vector abs. value=  0.114E+01
 bond charge predicted
       N       E                     dE             d eps       ncg     rms          rms(c)
DAV:   1    -0.640863422488E+02   -0.13968E+00   -0.17257E+02   400   0.104E+02    0.417E+00
DAV:   2    -0.640583627651E+02    0.27979E-01   -0.50645E+00   480   0.155E+01    0.232E+00
DAV:   3    -0.639561180949E+02    0.10224E+00   -0.47389E-01   512   0.447E+00    0.124E+00
DAV:   4    -0.639578451790E+02   -0.17271E-02   -0.96704E-02   464   0.182E+00    0.995E-01
DAV:   5    -0.639327875994E+02    0.25058E-01   -0.29083E-02   464   0.103E+00    0.332E-01
DAV:   6    -0.639292308549E+02    0.35567E-02   -0.93933E-03   480   0.510E-01    0.796E-02
DAV:   7    -0.639292251500E+02    0.57049E-05   -0.10680E-03   488   0.209E-01    0.404E-02
DAV:   8    -0.639292511667E+02   -0.26017E-04   -0.23049E-04   368   0.862E-02
   2 F= -.63929251E+02 E0= -.63888878E+02  d E =0.174518E-01
 trial-energy change:    0.017452  1 .order    0.089234   -1.137538    1.316007
 step:   0.5075(harm=  0.4636)  dis= 0.06908  next Energy=   -64.244739 (dE=-0.298E+00)
 bond charge predicted
       N       E                     dE             d eps       ncg     rms          rms(c)
DAV:   1    -0.644025015159E+02   -0.47328E+00   -0.37181E+01   384   0.403E+01    0.251E+00
DAV:   2    -0.643612134369E+02    0.41288E-01   -0.43811E+00   496   0.789E+00    0.126E+00
DAV:   3    -0.642772622909E+02    0.83951E-01   -0.10469E-01   528   0.238E+00    0.774E-01
DAV:   4    -0.642709488503E+02    0.63134E-02   -0.14649E-01   496   0.185E+00    0.733E-01
DAV:   5    -0.642522283266E+02    0.18721E-01   -0.70635E-02   432   0.101E+00    0.233E-01
DAV:   6    -0.642504213518E+02    0.18070E-02   -0.25411E-03   448   0.313E-01    0.132E-01
DAV:   7    -0.642496914424E+02    0.72991E-03   -0.80325E-04   424   0.135E-01    0.520E-02
DAV:   8    -0.642495990567E+02    0.92386E-04   -0.34653E-04   328   0.750E-02
   3 F= -.64249599E+02 E0= -.64207094E+02  d E =-.302896E+00
 curvature:  -0.23 expect dE=-0.288E+00 dE for cont linesearch -0.215E-05
 trial: gam= 1.10141 g(F)=  0.117E+01 g(S)=  0.752E-01 ort =-0.326E-02 (trialstep = 0.391E+00)
 search vector abs. value=  0.262E+01
 bond charge predicted
       N       E                     dE             d eps       ncg     rms          rms(c)
DAV:   1    -0.642491962716E+02    0.49517E-03   -0.56245E+01   448   0.546E+01    0.202E+00
DAV:   2    -0.642363916340E+02    0.12805E-01   -0.10138E+00   480   0.759E+00    0.123E+00
DAV:   3    -0.642119022663E+02    0.24489E-01   -0.20433E-01   528   0.304E+00    0.505E-01
DAV:   4    -0.642092331912E+02    0.26691E-02   -0.34954E-02   504   0.112E+00    0.293E-01
DAV:   5    -0.642088063746E+02    0.42682E-03   -0.59969E-03   472   0.432E-01    0.718E-02
DAV:   6    -0.642087561344E+02    0.50240E-04   -0.50361E-04   464   0.153E-01
   4 F= -.64208756E+02 E0= -.64164260E+02  d E =0.408429E-01
 trial-energy change:    0.040843  1 .order    0.009814   -0.487266    0.506895
 step:   0.1736(harm=  0.1917)  dis= 0.03616  next Energy=   -64.355034 (dE=-0.105E+00)
 bond charge predicted
       N       E                     dE             d eps       ncg     rms          rms(c)
DAV:   1    -0.643646725320E+02   -0.15587E+00   -0.15986E+01   384   0.265E+01    0.119E+00
DAV:   2    -0.643672823471E+02   -0.26098E-02   -0.41199E-01   448   0.454E+00    0.733E-01
DAV:   3    -0.643569640262E+02    0.10318E-01   -0.49374E-02   512   0.147E+00    0.405E-01
DAV:   4    -0.643553510673E+02    0.16130E-02   -0.11907E-02   464   0.781E-01    0.151E-01
DAV:   5    -0.643550003733E+02    0.35069E-03   -0.21172E-03   464   0.275E-01    0.741E-02
DAV:   6    -0.643549958080E+02    0.45653E-05   -0.50889E-04   464   0.132E-01
   5 F= -.64354996E+02 E0= -.64312434E+02  d E =-.105397E+00
 curvature:  -0.20 expect dE=-0.297E-01 dE for cont linesearch -0.118E-04
 trial: gam= 0.20268 g(F)=  0.127E+00 g(S)=  0.215E-01 ort =-0.125E-01 (trialstep = 0.348E+00)
 search vector abs. value=  0.251E+00
 bond charge predicted
       N       E                     dE             d eps       ncg     rms          rms(c)
DAV:   1    -0.643870838100E+02   -0.32083E-01   -0.42629E+00   384   0.127E+01    0.473E-01
DAV:   2    -0.643890370750E+02   -0.19533E-02   -0.96817E-02   464   0.192E+00    0.278E-01
DAV:   3    -0.643875679699E+02    0.14691E-02   -0.54070E-03   496   0.451E-01    0.179E-01
DAV:   4    -0.643869790932E+02    0.58888E-03   -0.22468E-03   480   0.292E-01    0.460E-02
DAV:   5    -0.643869435647E+02    0.35529E-04   -0.37780E-04   384   0.112E-01
   6 F= -.64386944E+02 E0= -.64344756E+02  d E =-.319478E-01
 trial-energy change:   -0.031948  1 .order   -0.031732   -0.050667   -0.012796
 step:   0.4650(harm=  0.4650)  dis= 0.03556  next Energy=   -64.388889 (dE=-0.339E-01)
 bond charge predicted
       N       E                     dE             d eps       ncg     rms          rms(c)
DAV:   1    -0.643890938224E+02   -0.21147E-02   -0.48573E-01   384   0.427E+00    0.162E-01
DAV:   2    -0.643892839417E+02   -0.19012E-03   -0.10666E-02   432   0.656E-01    0.100E-01
DAV:   3    -0.643890618819E+02    0.22206E-03   -0.66691E-04   448   0.156E-01    0.623E-02
DAV:   4    -0.643889917678E+02    0.70114E-04   -0.24814E-04   368   0.105E-01
   7 F= -.64388992E+02 E0= -.64346219E+02  d E =-.339960E-01
 curvature:  -0.40 expect dE=-0.419E-01 dE for cont linesearch -0.724E-05
 trial: gam= 0.68747 g(F)=  0.101E+00 g(S)=  0.356E-02 ort =-0.213E-02 (trialstep = 0.371E+00)
 search vector abs. value=  0.220E+00
 bond charge predicted
       N       E                     dE             d eps       ncg     rms          rms(c)
DAV:   1    -0.644136926947E+02   -0.24631E-01   -0.41483E+00   384   0.124E+01    0.455E-01
DAV:   2    -0.644164338569E+02   -0.27412E-02   -0.92369E-02   464   0.187E+00    0.278E-01
DAV:   3    -0.644140091006E+02    0.24248E-02   -0.69948E-03   448   0.552E-01    0.160E-01
DAV:   4    -0.644136237708E+02    0.38533E-03   -0.15109E-03   448   0.255E-01    0.577E-02
DAV:   5    -0.644136126372E+02    0.11134E-04   -0.28258E-04   448   0.104E-01
   8 F= -.64413613E+02 E0= -.64367664E+02  d E =-.246209E-01
 trial-energy change:   -0.024621  1 .order   -0.024822   -0.038258   -0.011386
 step:   0.5283(harm=  0.5283)  dis= 0.03816  next Energy=   -64.416225 (dE=-0.272E-01)
 bond charge predicted
       N       E                     dE             d eps       ncg     rms          rms(c)
DAV:   1    -0.644162113408E+02   -0.25876E-02   -0.74367E-01   384   0.522E+00    0.191E-01
DAV:   2    -0.644166753396E+02   -0.46400E-03   -0.15943E-02   480   0.779E-01    0.120E-01
DAV:   3    -0.644162747038E+02    0.40064E-03   -0.12638E-03   448   0.230E-01    0.719E-02
DAV:   4    -0.644161974818E+02    0.77222E-04   -0.28785E-04   416   0.119E-01
   9 F= -.64416197E+02 E0= -.64368472E+02  d E =-.272057E-01
 curvature:  -0.56 expect dE=-0.729E-01 dE for cont linesearch -0.122E-04
 trial: gam= 1.22853 g(F)=  0.124E+00 g(S)=  0.501E-02 ort = 0.218E-02 (trialstep = 0.190E+00)
 search vector abs. value=  0.467E+00
 bond charge predicted
       N       E                     dE             d eps       ncg     rms          rms(c)
DAV:   1    -0.644292260566E+02   -0.12951E-01   -0.22610E+00   384   0.937E+00    0.298E-01
DAV:   2    -0.644312749887E+02   -0.20489E-02   -0.42843E-02   464   0.134E+00    0.186E-01
DAV:   3    -0.644309814157E+02    0.29357E-03   -0.39909E-03   480   0.428E-01    0.115E-01
DAV:   4    -0.644307507258E+02    0.23069E-03   -0.94297E-04   416   0.186E-01    0.462E-02
DAV:   5    -0.644307291838E+02    0.21542E-04   -0.14420E-04   320   0.851E-02
  10 F= -.64430729E+02 E0= -.64381987E+02  d E =-.145317E-01
 trial-energy change:   -0.014532  1 .order   -0.014270   -0.025029   -0.003512
 step:   0.2208(harm=  0.2208)  dis= 0.02214  next Energy=   -64.430755 (dE=-0.146E-01)
 bond charge predicted
       N       E                     dE             d eps       ncg     rms          rms(c)
DAV:   1    -0.644310348979E+02   -0.28417E-03   -0.60620E-02   384   0.153E+00    0.497E-02
DAV:   2    -0.644310870404E+02   -0.52143E-04   -0.11841E-03   512   0.226E-01    0.315E-02
DAV:   3    -0.644310823293E+02    0.47112E-05   -0.10676E-04   304   0.743E-02
  11 F= -.64431082E+02 E0= -.64381990E+02  d E =-.148848E-01
 curvature:  -0.39 expect dE=-0.186E-01 dE for cont linesearch -0.281E-07
 trial: gam= 0.41933 g(F)=  0.380E-01 g(S)=  0.954E-02 ort = 0.183E-03 (trialstep = 0.196E+00)
 search vector abs. value=  0.130E+00
 bond charge predicted
       N       E                     dE             d eps       ncg     rms          rms(c)
DAV:   1    -0.644391800581E+02   -0.80930E-02   -0.61365E-01   384   0.478E+00    0.252E-01
DAV:   2    -0.644398389112E+02   -0.65885E-03   -0.15652E-02   432   0.758E-01    0.191E-01
DAV:   3    -0.644381320749E+02    0.17068E-02   -0.18796E-03   448   0.262E-01    0.725E-02
DAV:   4    -0.644380935807E+02    0.38494E-04   -0.60582E-04   472   0.155E-01
  12 F= -.64438094E+02 E0= -.64388644E+02  d E =-.701125E-02
 trial-energy change:   -0.007011  1 .order   -0.006974   -0.009337   -0.004612
 step:   0.3874(harm=  0.3874)  dis= 0.01939  next Energy=   -64.440308 (dE=-0.923E-02)
 bond charge predicted
       N       E                     dE             d eps       ncg     rms          rms(c)
DAV:   1    -0.644415144752E+02   -0.33824E-02   -0.58520E-01   384   0.467E+00    0.254E-01
DAV:   2    -0.644423171981E+02   -0.80272E-03   -0.15368E-02   424   0.750E-01    0.202E-01
DAV:   3    -0.644404361328E+02    0.18811E-02   -0.19882E-03   448   0.270E-01    0.737E-02
DAV:   4    -0.644403881647E+02    0.47968E-04   -0.61636E-04   480   0.157E-01
  13 F= -.64440388E+02 E0= -.64390448E+02  d E =-.930584E-02
 curvature:  -0.53 expect dE=-0.143E-01 dE for cont linesearch -0.650E-06
 trial: gam= 0.54741 g(F)=  0.172E-01 g(S)=  0.990E-02 ort = 0.400E-03 (trialstep = 0.234E+00)
 search vector abs. value=  0.664E-01
 bond charge predicted
       N       E                     dE             d eps       ncg     rms          rms(c)
DAV:   1    -0.644472486636E+02   -0.68125E-02   -0.42048E-01   384   0.396E+00    0.242E-01
DAV:   2    -0.644474578238E+02   -0.20916E-03   -0.12061E-02   432   0.664E-01    0.197E-01
DAV:   3    -0.644459706691E+02    0.14872E-02   -0.16458E-03   416   0.243E-01    0.817E-02
DAV:   4    -0.644458161864E+02    0.15448E-03   -0.60998E-04   480   0.159E-01    0.252E-02
DAV:   5    -0.644458105635E+02    0.56228E-05   -0.53217E-05   336   0.488E-02
  14 F= -.64445811E+02 E0= -.64396608E+02  d E =-.542240E-02
 trial-energy change:   -0.005422  1 .order   -0.005515   -0.006394   -0.004636
 step:   0.8522(harm=  0.8522)  dis= 0.02850  next Energy=   -64.452015 (dE=-0.116E-01)
 bond charge predicted
       N       E                     dE             d eps       ncg     rms          rms(c)
DAV:   1    -0.644624754306E+02   -0.16659E-01   -0.29232E+00   384   0.104E+01    0.670E-01
DAV:   2    -0.644659224967E+02   -0.34471E-02   -0.91913E-02   432   0.182E+00    0.522E-01
DAV:   3    -0.644534684582E+02    0.12454E-01   -0.11850E-02   416   0.660E-01    0.219E-01
DAV:   4    -0.644524683435E+02    0.10001E-02   -0.51468E-03   464   0.442E-01    0.101E-01
DAV:   5    -0.644522193984E+02    0.24895E-03   -0.74874E-04   496   0.165E-01    0.324E-02
DAV:   6    -0.644522749530E+02   -0.55555E-04   -0.11793E-04   304   0.749E-02
  15 F= -.64452275E+02 E0= -.64404148E+02  d E =-.118868E-01
 curvature:  -1.04 expect dE=-0.703E-01 dE for cont linesearch -0.907E-05
 trial: gam= 2.43041 g(F)=  0.622E-01 g(S)=  0.558E-02 ort = 0.762E-03 (trialstep = 0.513E-01)
 search vector abs. value=  0.464E+00
 bond charge predicted
       N       E                     dE             d eps       ncg     rms          rms(c)
DAV:   1    -0.644566987532E+02   -0.44794E-02   -0.13709E-01   384   0.227E+00    0.169E-01
DAV:   2    -0.644567400736E+02   -0.41320E-04   -0.49668E-03   432   0.390E-01    0.151E-01
DAV:   3    -0.644557292562E+02    0.10108E-02   -0.84333E-04   432   0.159E-01    0.527E-02
DAV:   4    -0.644556709658E+02    0.58290E-04   -0.20970E-04   336   0.108E-01
  16 F= -.64455671E+02 E0= -.64407102E+02  d E =-.339601E-02
 ZBRENT: can't locate minimum, use default step
 trial-energy change:   -0.003396  1 .order   -0.003304   -0.003568   -0.003040
 step:   0.2050(harm=  0.3462)  dis= 0.01722  next Energy=   -64.464325 (dE=-0.120E-01)
 bond charge predicted
       N       E                     dE             d eps       ncg     rms          rms(c)
DAV:   1    -0.644711123863E+02   -0.15383E-01   -0.12312E+00   384   0.677E+00    0.516E-01
DAV:   2    -0.644720966795E+02   -0.98429E-03   -0.51844E-02   448   0.121E+00    0.431E-01
DAV:   3    -0.644623805419E+02    0.97161E-02   -0.73298E-03   416   0.467E-01    0.161E-01
DAV:   4    -0.644618790976E+02    0.50144E-03   -0.28420E-03   480   0.370E-01    0.750E-02
DAV:   5    -0.644616957279E+02    0.18337E-03   -0.59683E-04   432   0.153E-01    0.255E-02
DAV:   6    -0.644617192505E+02   -0.23523E-04   -0.32373E-05   328   0.411E-02
  17 F= -.64461719E+02 E0= -.64413573E+02  d E =-.944430E-02
 curvature:  -0.89 expect dE=-0.276E-01 dE for cont linesearch -0.729E-03
 trial: gam= 0.23976 g(F)=  0.239E-01 g(S)=  0.723E-02 ort = 0.195E-01 (trialstep = 0.820E-01)
 search vector abs. value=  0.671E-01
 bond charge predicted
       N       E                     dE             d eps       ncg     rms          rms(c)
DAV:   1    -0.644649529688E+02   -0.32572E-02   -0.46551E-02   448   0.148E+00    0.114E-01
DAV:   2    -0.644647771882E+02    0.17578E-03   -0.15678E-03   416   0.226E-01    0.849E-02
DAV:   3    -0.644644842931E+02    0.29290E-03   -0.28999E-04   320   0.975E-02    0.363E-02
DAV:   4    -0.644644708682E+02    0.13425E-04   -0.96621E-05   320   0.683E-02
  18 F= -.64464471E+02 E0= -.64416185E+02  d E =-.275162E-02
 ZBRENT: can't locate minimum, use default step
 trial-energy change:   -0.002752  1 .order   -0.002659   -0.002933   -0.002386
 step:   0.3280(harm=  0.4394)  dis= 0.00720  next Energy=   -64.469577 (dE=-0.786E-02)
 bond charge predicted
       N       E                     dE             d eps       ncg     rms          rms(c)
DAV:   1    -0.644731393411E+02   -0.86550E-02   -0.41451E-01   384   0.443E+00    0.343E-01
DAV:   2    -0.644721692616E+02    0.97008E-03   -0.18439E-02   416   0.779E-01    0.257E-01
DAV:   3    -0.644691741484E+02    0.29951E-02   -0.27541E-03   416   0.301E-01    0.111E-01
DAV:   4    -0.644689054737E+02    0.26867E-03   -0.89531E-04   496   0.221E-01    0.314E-02
DAV:   5    -0.644688979739E+02    0.74998E-05   -0.90232E-05   320   0.664E-02
  19 F= -.64468898E+02 E0= -.64420622E+02  d E =-.717872E-02
 curvature:  -0.37 expect dE=-0.561E-02 dE for cont linesearch -0.250E-03
 trial: gam= 0.00000 g(F)=  0.832E-02 g(S)=  0.677E-02 ort = 0.671E-02 (trialstep = 0.131E+00)
 search vector abs. value=  0.151E-01
 bond charge predicted
       N       E                     dE             d eps       ncg     rms          rms(c)
DAV:   1    -0.644709552635E+02   -0.20498E-02   -0.25729E-02   384   0.115E+00    0.120E-01
DAV:   2    -0.644707943004E+02    0.16096E-03   -0.16620E-03   432   0.235E-01    0.879E-02
DAV:   3    -0.644704282036E+02    0.36610E-03   -0.33452E-04   336   0.994E-02    0.335E-02
DAV:   4    -0.644704187797E+02    0.94239E-05   -0.97199E-05   320   0.637E-02
  20 F= -.64470419E+02 E0= -.64422055E+02  d E =-.152081E-02
 trial-energy change:   -0.001521  1 .order   -0.001510   -0.001979   -0.001040
 step:   0.2764(harm=  0.2764)  dis= 0.00307  next Energy=   -64.470983 (dE=-0.208E-02)
 bond charge predicted
       N       E                     dE             d eps       ncg     rms          rms(c)
DAV:   1    -0.644716881277E+02   -0.12599E-02   -0.32111E-02   384   0.127E+00    0.134E-01
DAV:   2    -0.644715061416E+02    0.18199E-03   -0.21152E-03   416   0.265E-01    0.983E-02
DAV:   3    -0.644710411494E+02    0.46499E-03   -0.41201E-04   352   0.110E-01    0.380E-02
DAV:   4    -0.644710203714E+02    0.20778E-04   -0.12336E-04   320   0.722E-02
  21 F= -.64471020E+02 E0= -.64422486E+02  d E =-.212240E-02
 curvature:  -0.14 expect dE=-0.283E-02 dE for cont linesearch -0.633E-06
 trial: gam= 1.33759 g(F)=  0.150E-01 g(S)=  0.546E-02 ort = 0.263E-03 (trialstep = 0.502E-01)
 search vector abs. value=  0.481E-01
 bond charge predicted
       N       E                     dE             d eps       ncg     rms          rms(c)
DAV:   1    -0.644722300696E+02   -0.11889E-02   -0.95001E-03   448   0.707E-01    0.748E-02
DAV:   2    -0.644721545873E+02    0.75482E-04   -0.50807E-04   432   0.121E-01
  22 F= -.64472155E+02 E0= -.64425075E+02  d E =-.113422E-02
 ZBRENT: can't locate minimum, use default step
 trial-energy change:   -0.001134  1 .order   -0.000943   -0.001044   -0.000842
 step:   0.2009(harm=  0.2595)  dis= 0.00215  next Energy=   -64.473718 (dE=-0.270E-02)
 bond charge predicted
       N       E                     dE             d eps       ncg     rms          rms(c)
DAV:   1    -0.644765941418E+02   -0.43641E-02   -0.86727E-02   448   0.211E+00    0.247E-01
DAV:   2    -0.644759133525E+02    0.68079E-03   -0.50966E-03   416   0.380E-01    0.170E-01
DAV:   3    -0.644745713781E+02    0.13420E-02   -0.11145E-03   416   0.185E-01    0.771E-02
DAV:   4    -0.644743885785E+02    0.18280E-03   -0.52329E-04   464   0.152E-01    0.144E-02
DAV:   5    -0.644744001053E+02   -0.11527E-04   -0.30082E-05   320   0.432E-02
  23 F= -.64474400E+02 E0= -.64426171E+02  d E =-.337973E-02
 curvature:  -0.28 expect dE=-0.317E-02 dE for cont linesearch -0.977E-03
 trial: gam=-0.06321 g(F)=  0.696E-02 g(S)=  0.449E-02 ort = 0.130E-01 (trialstep = 0.804E-01)
 search vector abs. value=  0.100E-01
 bond charge predicted
       N       E                     dE             d eps       ncg     rms          rms(c)
DAV:   1    -0.644751844400E+02   -0.79586E-03   -0.69567E-03   392   0.604E-01    0.384E-02
DAV:   2    -0.644751719076E+02    0.12532E-04   -0.22347E-04   352   0.102E-01
  24 F= -.64475172E+02 E0= -.64427414E+02  d E =-.771802E-03
 trial-energy change:   -0.000772  1 .order   -0.000739   -0.000854   -0.000624
 step:   0.2986(harm=  0.2986)  dis= 0.00212  next Energy=   -64.475987 (dE=-0.159E-02)
 bond charge predicted
       N       E                     dE             d eps       ncg     rms          rms(c)
DAV:   1    -0.644761429494E+02   -0.95851E-03   -0.51096E-02   384   0.163E+00    0.118E-01
DAV:   2    -0.644759500435E+02    0.19291E-03   -0.17119E-03   416   0.280E-01    0.764E-02
DAV:   3    -0.644758177142E+02    0.13233E-03   -0.30799E-04   336   0.110E-01    0.453E-02
DAV:   4    -0.644757782773E+02    0.39437E-04   -0.19325E-04   320   0.931E-02
  25 F= -.64475778E+02 E0= -.64427831E+02  d E =-.137817E-02
 curvature:  -0.14 expect dE=-0.236E-02 dE for cont linesearch -0.583E-04
 trial: gam= 1.58246 g(F)=  0.122E-01 g(S)=  0.457E-02 ort =-0.204E-02 (trialstep = 0.350E-01)
 search vector abs. value=  0.354E-01
 bond charge predicted
       N       E                     dE             d eps       ncg     rms          rms(c)
DAV:   1    -0.644763496196E+02   -0.53191E-03   -0.40565E-03   400   0.442E-01    0.482E-02
DAV:   2    -0.644763172294E+02    0.32390E-04   -0.25426E-04   304   0.917E-02
  26 F= -.64476317E+02 E0= -.64429344E+02  d E =-.538952E-03
 ZBRENT: can't locate minimum, use default step
 trial-energy change:   -0.000539  1 .order   -0.000426   -0.000476   -0.000377
 step:   0.1401(harm=  0.1679)  dis= 0.00168  next Energy=   -64.476919 (dE=-0.114E-02)
 bond charge predicted
       N       E                     dE             d eps       ncg     rms          rms(c)
DAV:   1    -0.644783424107E+02   -0.19928E-02   -0.35578E-02   384   0.130E+00    0.146E-01
DAV:   2    -0.644780790467E+02    0.26336E-03   -0.24191E-03   416   0.259E-01    0.113E-01
DAV:   3    -0.644774969809E+02    0.58207E-03   -0.46257E-04   352   0.117E-01    0.450E-02
DAV:   4    -0.644774361136E+02    0.60867E-04   -0.12562E-04   336   0.773E-02
  27 F= -.64477436E+02 E0= -.64429380E+02  d E =-.165784E-02
 curvature:  -0.21 expect dE=-0.286E-02 dE for cont linesearch -0.620E-03
 trial: gam=-0.01926 g(F)=  0.891E-02 g(S)=  0.479E-02 ort = 0.102E-01 (trialstep = 0.560E-01)
 search vector abs. value=  0.133E-01
 bond charge predicted
       N       E                     dE             d eps       ncg     rms          rms(c)
DAV:   1    -0.644781641954E+02   -0.66721E-03   -0.50123E-03   384   0.489E-01    0.471E-02
DAV:   2    -0.644781339192E+02    0.30276E-04   -0.24644E-04   304   0.102E-01
  28 F= -.64478134E+02 E0= -.64430963E+02  d E =-.697806E-03
 trial-energy change:   -0.000698  1 .order   -0.000621   -0.000756   -0.000485
 step:   0.1561(harm=  0.1561)  dis= 0.00205  next Energy=   -64.478490 (dE=-0.105E-02)
 bond charge predicted
       N       E                     dE             d eps       ncg     rms          rms(c)
DAV:   1    -0.644790076501E+02   -0.84345E-03   -0.16005E-02   384   0.865E-01    0.947E-02
DAV:   2    -0.644788902901E+02    0.11736E-03   -0.93260E-04   416   0.181E-01    0.663E-02
DAV:   3    -0.644787075516E+02    0.18274E-03   -0.18126E-04   304   0.794E-02    0.288E-02
DAV:   4    -0.644786964456E+02    0.11106E-04   -0.85669E-05   304   0.600E-02
  29 F= -.64478696E+02 E0= -.64430511E+02  d E =-.126033E-02
 curvature:  -0.08 expect dE=-0.575E-03 dE for cont linesearch -0.439E-04
 trial: gam= 0.33028 g(F)=  0.355E-02 g(S)=  0.391E-02 ort = 0.275E-02 (trialstep = 0.761E-01)
 search vector abs. value=  0.107E-01
 bond charge predicted
       N       E                     dE             d eps       ncg     rms          rms(c)
DAV:   1    -0.644794020670E+02   -0.69452E-03   -0.54899E-03   384   0.513E-01    0.520E-02
DAV:   2    -0.644793642279E+02    0.37839E-04   -0.28166E-04   304   0.987E-02
  30 F= -.64479364E+02 E0= -.64432214E+02  d E =-.667782E-03
 ZBRENT: can't locate minimum, use default step
 trial-energy change:   -0.000668  1 .order   -0.000581   -0.000637   -0.000525
 step:   0.3042(harm=  0.4340)  dis= 0.00150  next Energy=   -64.480513 (dE=-0.182E-02)
 bond charge predicted
       N       E                     dE             d eps       ncg     rms          rms(c)
DAV:   1    -0.644817693244E+02   -0.23673E-02   -0.50222E-02   384   0.154E+00    0.171E-01
DAV:   2    -0.644814458119E+02    0.32351E-03   -0.29579E-03   416   0.303E-01    0.119E-01
DAV:   3    -0.644808368316E+02    0.60898E-03   -0.54584E-04   352   0.131E-01    0.550E-02
DAV:   4    -0.644807327214E+02    0.10411E-03   -0.28303E-04   368   0.110E-01    0.104E-02
DAV:   5    -0.644807405624E+02   -0.78410E-05   -0.31616E-05   304   0.458E-02
  31 F= -.64480741E+02 E0= -.64432892E+02  d E =-.204412E-02
 curvature:  -0.24 expect dE=-0.136E-02 dE for cont linesearch -0.641E-03
 trial: gam= 0.00000 g(F)=  0.194E-02 g(S)=  0.370E-02 ort = 0.534E-02 (trialstep = 0.122E+00)
 search vector abs. value=  0.564E-02
 bond charge predicted
       N       E                     dE             d eps       ncg     rms          rms(c)
DAV:   1    -0.644815850431E+02   -0.85232E-03   -0.77288E-03   384   0.600E-01    0.656E-02
DAV:   2    -0.644815303810E+02    0.54662E-04   -0.53726E-04   416   0.123E-01
  32 F= -.64481530E+02 E0= -.64435122E+02  d E =-.789819E-03
 trial-energy change:   -0.000790  1 .order   -0.000555   -0.000686   -0.000423
 step:   0.3180(harm=  0.3180)  dis= 0.00125  next Energy=   -64.481637 (dE=-0.896E-03)
 bond charge predicted
       N       E                     dE             d eps       ncg     rms          rms(c)
DAV:   1    -0.644828809112E+02   -0.12959E-02   -0.21122E-02   384   0.978E-01    0.121E-01
DAV:   2    -0.644826843092E+02    0.19660E-03   -0.15512E-03   432   0.210E-01    0.911E-02
DAV:   3    -0.644823107063E+02    0.37360E-03   -0.29490E-04   320   0.949E-02    0.374E-02
DAV:   4    -0.644822721955E+02    0.38511E-04   -0.96642E-05   320   0.671E-02
  33 F= -.64482272E+02 E0= -.64434250E+02  d E =-.153163E-02
 curvature:  -0.16 expect dE=-0.882E-03 dE for cont linesearch -0.488E-03
 trial: gam= 0.24559 g(F)=  0.205E-02 g(S)=  0.349E-02 ort = 0.416E-02 (trialstep = 0.114E+00)
 search vector abs. value=  0.793E-02
 bond charge predicted
       N       E                     dE             d eps       ncg     rms          rms(c)
DAV:   1    -0.644831398275E+02   -0.82912E-03   -0.91472E-03   384   0.648E-01    0.644E-02
DAV:   2    -0.644830847291E+02    0.55098E-04   -0.47259E-04   416   0.123E-01
  34 F= -.64483085E+02 E0= -.64436436E+02  d E =-.812534E-03
 ZBRENT: can't locate minimum, use default step
 trial-energy change:   -0.000813  1 .order   -0.000666   -0.000751   -0.000582
 step:   0.4578(harm=  0.5062)  dis= 0.00236  next Energy=   -64.483934 (dE=-0.166E-02)
 bond charge predicted
       N       E                     dE             d eps       ncg     rms          rms(c)
DAV:   1    -0.644861880962E+02   -0.30483E-02   -0.83483E-02   416   0.194E+00    0.215E-01
DAV:   2    -0.644856474014E+02    0.54069E-03   -0.46712E-03   416   0.375E-01    0.153E-01
DAV:   3    -0.644846474751E+02    0.99993E-03   -0.91172E-04   416   0.172E-01    0.708E-02
DAV:   4    -0.644844890966E+02    0.15838E-03   -0.46997E-04   464   0.146E-01    0.166E-02
DAV:   5    -0.644844976799E+02   -0.85833E-05   -0.37682E-05   288   0.473E-02
  35 F= -.64484498E+02 E0= -.64436947E+02  d E =-.222548E-02
 curvature:  -0.30 expect dE=-0.369E-02 dE for cont linesearch -0.404E-03
 trial: gam= 0.00000 g(F)=  0.892E-02 g(S)=  0.336E-02 ort = 0.326E-02 (trialstep = 0.118E+00)
 search vector abs. value=  0.123E-01
 bond charge predicted
       N       E                     dE             d eps       ncg     rms          rms(c)
DAV:   1    -0.644857773567E+02   -0.12883E-02   -0.24213E-02   384   0.103E+00    0.102E-01
DAV:   2    -0.644856411676E+02    0.13619E-03   -0.12181E-03   416   0.211E-01    0.734E-02
DAV:   3    -0.644854044693E+02    0.23670E-03   -0.25509E-04   336   0.893E-02    0.273E-02
DAV:   4    -0.644853981186E+02    0.63507E-05   -0.64017E-05   312   0.515E-02
  36 F= -.64485398E+02 E0= -.64437625E+02  d E =-.900439E-03
 trial-energy change:   -0.000900  1 .order   -0.000893   -0.001452   -0.000334
 step:   0.1536(harm=  0.1536)  dis= 0.00215  next Energy=   -64.485440 (dE=-0.943E-03)
 bond charge predicted
       N       E                     dE             d eps       ncg     rms          rms(c)
DAV:   1    -0.644854879044E+02   -0.83435E-04   -0.21092E-03   392   0.307E-01    0.304E-02
DAV:   2    -0.644854775419E+02    0.10363E-04   -0.98255E-05   288   0.627E-02
  37 F= -.64485478E+02 E0= -.64438172E+02  d E =-.979862E-03
 curvature:  -0.08 expect dE=-0.481E-03 dE for cont linesearch -0.371E-05
 trial: gam= 0.57353 g(F)=  0.391E-02 g(S)=  0.236E-02 ort =-0.770E-03 (trialstep = 0.125E+00)
 search vector abs. value=  0.942E-02
 reached required accuracy - stopping structural energy minimisation
 writing wavefunctions
Sun Mar  6 20:27:08 CST 2022
