Sun Mar  6 19:42:11 CST 2022
 running on   48 total cores
 distrk:  each k-point on   48 cores,    1 groups
 distr:  one band on   24 cores,    2 groups
 using from now: INCAR     
 vasp.5.3.5 31Mar14 (build Jan 11 2016 19:50:55) complex                        
  
 POSCAR found type information on POSCAR  B  C  Na
 POSCAR found :  3 types and       9 ions
 scaLAPACK will be used

 ----------------------------------------------------------------------------- 
|                                                                             |
|           W    W    AA    RRRRR   N    N  II  N    N   GGGG   !!!           |
|           W    W   A  A   R    R  NN   N  II  NN   N  G    G  !!!           |
|           W    W  A    A  R    R  N N  N  II  N N  N  G       !!!           |
|           W WW W  AAAAAA  RRRRR   N  N N  II  N  N N  G  GGG   !            |
|           WW  WW  A    A  R   R   N   NN  II  N   NN  G    G                |
|           W    W  A    A  R    R  N    N  II  N    N   GGGG   !!!           |
|                                                                             |
|      For optimal performance we recommend to set                            |
|        NCORE= 4 - approx SQRT( number of cores)                             |
|      NCORE specifies how many cores store one orbital (NPAR=cpu/NCORE).     |
|      This setting can  greatly improve the performance of VASP for DFT.     |
|      The default, NPAR=number of cores might be grossly inefficient         |
|      on modern multi-core architectures or massively parallel machines.     |
|      Do your own testing !!!!                                               |
|      Unfortunately you need to use the default for GW and RPA calculations. |
|      (for HF NCORE is supported but not extensively tested yet)             |
|                                                                             |
 ----------------------------------------------------------------------------- 

 LDA part: xc-table for Pade appr. of Perdew
 POSCAR, INCAR and KPOINTS ok, starting setup
 WARNING: small aliasing (wrap around) errors must be expected
 FFT: planning ...
 WAVECAR not read
 entering main loop
       N       E                     dE             d eps       ncg     rms          rms(c)
DAV:   1     0.278282469121E+03    0.27828E+03   -0.12257E+04   456   0.874E+02
DAV:   2    -0.106990608711E+02   -0.28898E+03   -0.28139E+03   592   0.236E+02
DAV:   3    -0.660909801061E+02   -0.55392E+02   -0.54932E+02   472   0.107E+02
DAV:   4    -0.689601850714E+02   -0.28692E+01   -0.28603E+01   568   0.304E+01
DAV:   5    -0.690154972553E+02   -0.55312E-01   -0.55214E-01   488   0.361E+00    0.127E+01
DAV:   6    -0.627020526563E+02    0.63134E+01   -0.94633E+00   496   0.288E+01    0.692E+00
DAV:   7    -0.606650660923E+02    0.20370E+01   -0.73216E+00   576   0.143E+01    0.269E+00
DAV:   8    -0.604214819882E+02    0.24358E+00   -0.63834E-01   448   0.436E+00    0.869E-01
DAV:   9    -0.603388330349E+02    0.82649E-01   -0.15303E-01   520   0.184E+00    0.422E-01
DAV:  10    -0.603084627020E+02    0.30370E-01   -0.47296E-02   504   0.952E-01    0.214E-01
DAV:  11    -0.603049064130E+02    0.35563E-02   -0.15048E-02   576   0.477E-01    0.168E-01
DAV:  12    -0.603082493937E+02   -0.33430E-02   -0.40041E-03   432   0.300E-01    0.675E-02
DAV:  13    -0.603105295097E+02   -0.22801E-02   -0.22090E-03   480   0.149E-01    0.517E-02
DAV:  14    -0.603139920059E+02   -0.34625E-02   -0.23016E-03   352   0.177E-01    0.298E-02
DAV:  15    -0.603151625581E+02   -0.11706E-02   -0.71973E-04   328   0.714E-02    0.173E-02
DAV:  16    -0.603160132648E+02   -0.85071E-03   -0.55124E-04   288   0.604E-02    0.144E-02
DAV:  17    -0.603161810058E+02   -0.16774E-03   -0.11734E-04   352   0.438E-02    0.595E-03
DAV:  18    -0.603162932960E+02   -0.11229E-03   -0.51532E-05   280   0.273E-02    0.309E-03
DAV:  19    -0.603163319142E+02   -0.38618E-04   -0.16045E-05   320   0.167E-02
   1 F= -.60316332E+02 E0= -.60305774E+02  d E =-.603163E+02
 curvature:   0.00 expect dE= 0.000E+00 dE for cont linesearch  0.000E+00
 trial: gam= 0.00000 g(F)=  0.875E+00 g(S)=  0.114E+00 ort = 0.000E+00 (trialstep = 0.100E+01)
 search vector abs. value=  0.989E+00
 bond charge predicted
       N       E                     dE             d eps       ncg     rms          rms(c)
DAV:   1    -0.601191182960E+02    0.19717E+00   -0.14488E+02   464   0.924E+01    0.257E+00
DAV:   2    -0.601897941583E+02   -0.70676E-01   -0.30304E+00   472   0.126E+01    0.172E+00
DAV:   3    -0.601454302560E+02    0.44364E-01   -0.19514E-01   528   0.279E+00    0.108E+00
DAV:   4    -0.601387900868E+02    0.66402E-02   -0.64052E-02   504   0.126E+00    0.511E-01
DAV:   5    -0.601332093851E+02    0.55807E-02   -0.22078E-02   464   0.702E-01    0.126E-01
DAV:   6    -0.601332159516E+02   -0.65665E-05   -0.35985E-03   496   0.311E-01    0.527E-02
DAV:   7    -0.601332156746E+02    0.27696E-06   -0.18599E-04   336   0.863E-02
   2 F= -.60133216E+02 E0= -.60111216E+02  d E =0.183116E+00
 trial-energy change:    0.183116  1 .order    0.095986   -0.989421    1.181393
 step:   0.3981(harm=  0.4558)  dis= 0.05128  next Energy=   -60.507770 (dE=-0.191E+00)
 bond charge predicted
       N       E                     dE             d eps       ncg     rms          rms(c)
DAV:   1    -0.605046544611E+02   -0.37144E+00   -0.46283E+01   384   0.451E+01    0.166E+00
DAV:   2    -0.605333401620E+02   -0.28686E-01   -0.17269E+00   480   0.774E+00    0.106E+00
DAV:   3    -0.605171398057E+02    0.16200E-01   -0.75317E-02   560   0.190E+00    0.621E-01
DAV:   4    -0.605127235203E+02    0.44163E-02   -0.29535E-02   480   0.114E+00    0.144E-01
DAV:   5    -0.605122953812E+02    0.42814E-03   -0.53212E-03   480   0.457E-01    0.604E-02
DAV:   6    -0.605122704504E+02    0.24931E-04   -0.58577E-04   464   0.137E-01
   3 F= -.60512270E+02 E0= -.60499009E+02  d E =-.195939E+00
 curvature:  -0.23 expect dE=-0.158E+00 dE for cont linesearch -0.145E-04
 trial: gam= 0.71734 g(F)=  0.621E+00 g(S)=  0.805E-01 ort =-0.799E-02 (trialstep = 0.726E+00)
 search vector abs. value=  0.120E+01
 bond charge predicted
       N       E                     dE             d eps       ncg     rms          rms(c)
DAV:   1    -0.606701539997E+02   -0.15786E+00   -0.95599E+01   464   0.668E+01    0.226E+00
DAV:   2    -0.606740002779E+02   -0.38463E-02   -0.17100E+00   504   0.938E+00    0.139E+00
DAV:   3    -0.606193421044E+02    0.54658E-01   -0.25879E-01   464   0.274E+00    0.539E-01
DAV:   4    -0.606136227617E+02    0.57193E-02   -0.32592E-02   528   0.942E-01    0.258E-01
DAV:   5    -0.606119472428E+02    0.16755E-02   -0.11090E-02   464   0.445E-01    0.104E-01
DAV:   6    -0.606116559346E+02    0.29131E-03   -0.10777E-03   456   0.184E-01    0.416E-02
DAV:   7    -0.606116693146E+02   -0.13380E-04   -0.25209E-04   352   0.805E-02
   4 F= -.60611669E+02 E0= -.60590058E+02  d E =-.993989E-01
 trial-energy change:   -0.099399  1 .order   -0.111541   -0.505042    0.281960
 step:   0.4498(harm=  0.4656)  dis= 0.07446  next Energy=   -60.665920 (dE=-0.154E+00)
 bond charge predicted
       N       E                     dE             d eps       ncg     rms          rms(c)
DAV:   1    -0.606726239958E+02   -0.60968E-01   -0.12241E+01   384   0.212E+01    0.860E-01
DAV:   2    -0.606740082380E+02   -0.13842E-02   -0.27579E-01   480   0.324E+00    0.532E-01
DAV:   3    -0.606679397829E+02    0.60685E-02   -0.33088E-02   520   0.108E+00    0.233E-01
DAV:   4    -0.606673682709E+02    0.57151E-03   -0.32122E-03   496   0.333E-01    0.111E-01
DAV:   5    -0.606672113768E+02    0.15689E-03   -0.78402E-04   416   0.133E-01    0.295E-02
DAV:   6    -0.606672395881E+02   -0.28211E-04   -0.82850E-05   320   0.555E-02
   5 F= -.60667240E+02 E0= -.60648369E+02  d E =-.154969E+00
 curvature:  -0.40 expect dE=-0.631E-01 dE for cont linesearch -0.589E-05
 trial: gam= 0.34295 g(F)=  0.136E+00 g(S)=  0.222E-01 ort =-0.420E-02 (trialstep = 0.670E+00)
 search vector abs. value=  0.296E+00
 bond charge predicted
       N       E                     dE             d eps       ncg     rms          rms(c)
DAV:   1    -0.606827270023E+02   -0.15516E-01   -0.19066E+01   384   0.280E+01    0.808E-01
DAV:   2    -0.607207095253E+02   -0.37983E-01   -0.52021E-01   544   0.417E+00    0.539E-01
DAV:   3    -0.607170714328E+02    0.36381E-02   -0.25106E-02   464   0.102E+00    0.281E-01
DAV:   4    -0.607163537387E+02    0.71769E-03   -0.45939E-03   432   0.490E-01    0.836E-02
DAV:   5    -0.607162795375E+02    0.74201E-04   -0.10208E-03   400   0.138E-01    0.309E-02
DAV:   6    -0.607162653014E+02    0.14236E-04   -0.11962E-04   296   0.573E-02
   6 F= -.60716265E+02 E0= -.60693892E+02  d E =-.490257E-01
 trial-energy change:   -0.049026  1 .order   -0.049622   -0.104870    0.005627
 step:   0.6352(harm=  0.6363)  dis= 0.05425  next Energy=   -60.716413 (dE=-0.492E-01)
 bond charge predicted
       N       E                     dE             d eps       ncg     rms          rms(c)
DAV:   1    -0.607163281582E+02   -0.48621E-04   -0.50622E-02   384   0.135E+00    0.422E-02
DAV:   2    -0.607164079953E+02   -0.79837E-04   -0.11100E-03   456   0.205E-01    0.287E-02
DAV:   3    -0.607164112660E+02   -0.32707E-05   -0.55452E-05   280   0.563E-02
   7 F= -.60716411E+02 E0= -.60694244E+02  d E =-.491717E-01
 curvature:  -0.60 expect dE=-0.455E-01 dE for cont linesearch -0.899E-05
 trial: gam= 0.61330 g(F)=  0.621E-01 g(S)=  0.136E-01 ort = 0.210E-02 (trialstep = 0.663E+00)
 search vector abs. value=  0.190E+00
 bond charge predicted
       N       E                     dE             d eps       ncg     rms          rms(c)
DAV:   1    -0.607161601206E+02    0.24787E-03   -0.12209E+01   384   0.219E+01    0.743E-01
DAV:   2    -0.607287392987E+02   -0.12579E-01   -0.37046E-01   480   0.342E+00    0.454E-01
DAV:   3    -0.607253781436E+02    0.33612E-02   -0.31555E-02   488   0.864E-01    0.276E-01
DAV:   4    -0.607246351298E+02    0.74301E-03   -0.81962E-03   448   0.536E-01    0.759E-02
DAV:   5    -0.607245729317E+02    0.62198E-04   -0.13094E-03   480   0.228E-01    0.406E-02
DAV:   6    -0.607246191769E+02   -0.46245E-04   -0.17161E-04   320   0.757E-02
   8 F= -.60724619E+02 E0= -.60700397E+02  d E =-.820791E-02
 trial-energy change:   -0.008208  1 .order   -0.008069   -0.051075    0.034937
 step:   0.3939(harm=  0.3939)  dis= 0.02570  next Energy=   -60.731576 (dE=-0.152E-01)
 bond charge predicted
       N       E                     dE             d eps       ncg     rms          rms(c)
DAV:   1    -0.607300168049E+02   -0.54439E-02   -0.20030E+00   384   0.884E+00    0.287E-01
DAV:   2    -0.607321293218E+02   -0.21125E-02   -0.54717E-02   464   0.136E+00    0.181E-01
DAV:   3    -0.607317113829E+02    0.41794E-03   -0.39867E-03   456   0.339E-01    0.113E-01
DAV:   4    -0.607316332287E+02    0.78154E-04   -0.13672E-03   456   0.236E-01    0.319E-02
DAV:   5    -0.607316243110E+02    0.89177E-05   -0.24289E-04   392   0.100E-01
   9 F= -.60731624E+02 E0= -.60708227E+02  d E =-.152130E-01
 curvature:  -0.49 expect dE=-0.216E-01 dE for cont linesearch -0.527E-05
 trial: gam= 0.57240 g(F)=  0.388E-01 g(S)=  0.570E-02 ort = 0.144E-02 (trialstep = 0.610E+00)
 search vector abs. value=  0.108E+00
 bond charge predicted
       N       E                     dE             d eps       ncg     rms          rms(c)
DAV:   1    -0.607494372948E+02   -0.17804E-01   -0.54709E+00   384   0.147E+01    0.511E-01
DAV:   2    -0.607522157910E+02   -0.27785E-02   -0.14072E-01   496   0.207E+00    0.306E-01
DAV:   3    -0.607507207327E+02    0.14951E-02   -0.12906E-02   464   0.561E-01    0.180E-01
DAV:   4    -0.607506732684E+02    0.47464E-04   -0.28507E-03   512   0.337E-01    0.668E-02
DAV:   5    -0.607507366533E+02   -0.63385E-04   -0.38356E-04   416   0.111E-01
  10 F= -.60750737E+02 E0= -.60727771E+02  d E =-.191123E-01
 trial-energy change:   -0.019112  1 .order   -0.019212   -0.027596   -0.010827
 step:   1.0030(harm=  1.0030)  dis= 0.04571  next Energy=   -60.754331 (dE=-0.227E-01)
 bond charge predicted
       N       E                     dE             d eps       ncg     rms          rms(c)
DAV:   1    -0.607537030267E+02   -0.30298E-02   -0.22826E+00   384   0.947E+00    0.326E-01
DAV:   2    -0.607548364290E+02   -0.11334E-02   -0.59062E-02   496   0.133E+00    0.198E-01
DAV:   3    -0.607542267525E+02    0.60968E-03   -0.55985E-03   488   0.357E-01    0.118E-01
DAV:   4    -0.607542285040E+02   -0.17515E-05   -0.12937E-03   512   0.230E-01    0.409E-02
DAV:   5    -0.607542632433E+02   -0.34739E-04   -0.17385E-04   368   0.782E-02
  11 F= -.60754263E+02 E0= -.60731612E+02  d E =-.226389E-01
 curvature:  -1.20 expect dE=-0.714E-01 dE for cont linesearch -0.265E-07
 trial: gam= 1.37304 g(F)=  0.481E-01 g(S)=  0.115E-01 ort =-0.489E-04 (trialstep = 0.283E+00)
 search vector abs. value=  0.263E+00
 bond charge predicted
       N       E                     dE             d eps       ncg     rms          rms(c)
DAV:   1    -0.607709531986E+02   -0.16725E-01   -0.27035E+00   384   0.103E+01    0.436E-01
DAV:   2    -0.607694436160E+02    0.15096E-02   -0.13076E-01   480   0.154E+00    0.286E-01
DAV:   3    -0.607676473831E+02    0.17962E-02   -0.12701E-02   520   0.466E-01    0.159E-01
DAV:   4    -0.607674762411E+02    0.17114E-03   -0.25379E-03   512   0.368E-01    0.357E-02
DAV:   5    -0.607674935169E+02   -0.17276E-04   -0.29803E-04   416   0.128E-01
  12 F= -.60767494E+02 E0= -.60745899E+02  d E =-.132303E-01
 trial-energy change:   -0.013230  1 .order   -0.013138   -0.016817   -0.009458
 step:   0.6461(harm=  0.6461)  dis= 0.04174  next Energy=   -60.773480 (dE=-0.192E-01)
 bond charge predicted
       N       E                     dE             d eps       ncg     rms          rms(c)
DAV:   1    -0.607800463060E+02   -0.12570E-01   -0.44746E+00   384   0.133E+01    0.567E-01
DAV:   2    -0.607774228165E+02    0.26235E-02   -0.21866E-01   464   0.200E+00    0.368E-01
DAV:   3    -0.607744166844E+02    0.30061E-02   -0.20721E-02   504   0.605E-01    0.205E-01
DAV:   4    -0.607741053504E+02    0.31133E-03   -0.41428E-03   504   0.471E-01    0.470E-02
DAV:   5    -0.607741382847E+02   -0.32934E-04   -0.51020E-04   496   0.165E-01
  13 F= -.60774138E+02 E0= -.60753809E+02  d E =-.198750E-01
 curvature:  -1.43 expect dE=-0.877E-01 dE for cont linesearch -0.891E-05
 trial: gam= 1.04204 g(F)=  0.461E-01 g(S)=  0.152E-01 ort = 0.128E-02 (trialstep = 0.267E+00)
 search vector abs. value=  0.350E+00
 bond charge predicted
       N       E                     dE             d eps       ncg     rms          rms(c)
DAV:   1    -0.607943536111E+02   -0.20248E-01   -0.32038E+00   384   0.114E+01    0.540E-01
DAV:   2    -0.607891294919E+02    0.52241E-02   -0.15568E-01   480   0.175E+00    0.353E-01
DAV:   3    -0.607862462333E+02    0.28833E-02   -0.15947E-02   504   0.524E-01    0.207E-01
DAV:   4    -0.607855455592E+02    0.70067E-03   -0.35674E-03   464   0.373E-01    0.727E-02
DAV:   5    -0.607856037398E+02   -0.58181E-04   -0.44078E-04   464   0.121E-01
  14 F= -.60785604E+02 E0= -.60765735E+02  d E =-.114655E-01
 trial-energy change:   -0.011465  1 .order   -0.011731   -0.016755   -0.006706
 step:   0.4460(harm=  0.4460)  dis= 0.02985  next Energy=   -60.788107 (dE=-0.140E-01)
 bond charge predicted
       N       E                     dE             d eps       ncg     rms          rms(c)
DAV:   1    -0.607914563720E+02   -0.59108E-02   -0.14259E+00   384   0.764E+00    0.357E-01
DAV:   2    -0.607890156378E+02    0.24407E-02   -0.67680E-02   480   0.115E+00    0.233E-01
DAV:   3    -0.607877376877E+02    0.12780E-02   -0.69920E-03   488   0.344E-01    0.136E-01
DAV:   4    -0.607874606634E+02    0.27702E-03   -0.17008E-03   496   0.256E-01    0.466E-02
DAV:   5    -0.607875122710E+02   -0.51608E-04   -0.21220E-04   400   0.852E-02
  15 F= -.60787512E+02 E0= -.60767922E+02  d E =-.133740E-01
 curvature:  -1.25 expect dE=-0.491E-01 dE for cont linesearch -0.937E-05
 trial: gam= 0.72844 g(F)=  0.279E-01 g(S)=  0.115E-01 ort =-0.162E-02 (trialstep = 0.303E+00)
 search vector abs. value=  0.223E+00
 bond charge predicted
       N       E                     dE             d eps       ncg     rms          rms(c)
DAV:   1    -0.608131440316E+02   -0.25683E-01   -0.23642E+00   384   0.987E+00    0.633E-01
DAV:   2    -0.608022918288E+02    0.10852E-01   -0.21662E-01   464   0.161E+00    0.386E-01
DAV:   3    -0.607982975408E+02    0.39943E-02   -0.22755E-02   448   0.559E-01    0.204E-01
DAV:   4    -0.607974262043E+02    0.87134E-03   -0.45553E-03   464   0.441E-01    0.574E-02
DAV:   5    -0.607974774424E+02   -0.51238E-04   -0.57079E-04   504   0.162E-01
  16 F= -.60797477E+02 E0= -.60778755E+02  d E =-.996517E-02
 ZBRENT: can't locate minimum, use default step
 trial-energy change:   -0.009965  1 .order   -0.010347   -0.011585   -0.009108
 step:   1.2128(harm=  1.4182)  dis= 0.05601  next Energy=   -60.814606 (dE=-0.271E-01)
 bond charge predicted
       N       E                     dE             d eps       ncg     rms          rms(c)
DAV:   1    -0.609561781539E+02   -0.15875E+00   -0.21165E+01   384   0.293E+01    0.195E+00
DAV:   2    -0.608538354172E+02    0.10234E+00   -0.18715E+00   496   0.506E+00    0.113E+00
DAV:   3    -0.608209685539E+02    0.32867E-01   -0.15255E-01   448   0.170E+00    0.609E-01
DAV:   4    -0.608130153196E+02    0.79532E-02   -0.32741E-02   464   0.121E+00    0.188E-01
DAV:   5    -0.608129923554E+02    0.22964E-04   -0.43963E-03   528   0.426E-01    0.814E-02
DAV:   6    -0.608130608978E+02   -0.68542E-04   -0.11281E-03   480   0.139E-01    0.296E-02
DAV:   7    -0.608133309344E+02   -0.27004E-03   -0.15608E-04   336   0.575E-02    0.118E-02
DAV:   8    -0.608135675182E+02   -0.23658E-03   -0.92179E-05   336   0.412E-02    0.811E-03
DAV:   9    -0.608137876590E+02   -0.22014E-03   -0.72597E-05   368   0.387E-02    0.608E-03
DAV:  10    -0.608138817041E+02   -0.94045E-04   -0.27915E-05   352   0.206E-02
  17 F= -.60813882E+02 E0= -.60797358E+02  d E =-.263694E-01
 curvature:  -3.99 expect dE=-0.286E+00 dE for cont linesearch -0.763E-03
 trial: gam= 1.40166 g(F)=  0.598E-01 g(S)=  0.116E-01 ort = 0.652E-02 (trialstep = 0.205E+00)
 search vector abs. value=  0.527E+00
 bond charge predicted
       N       E                     dE             d eps       ncg     rms          rms(c)
DAV:   1    -0.608477790129E+02   -0.33991E-01   -0.24602E+00   384   0.105E+01    0.743E-01
DAV:   2    -0.608332941513E+02    0.14485E-01   -0.20021E-01   464   0.175E+00    0.418E-01
DAV:   3    -0.608289473142E+02    0.43468E-02   -0.24178E-02   448   0.665E-01    0.218E-01
DAV:   4    -0.608279569866E+02    0.99033E-03   -0.48251E-03   480   0.424E-01    0.761E-02
DAV:   5    -0.608279309779E+02    0.26009E-04   -0.75802E-04   480   0.168E-01
  18 F= -.60827931E+02 E0= -.60812366E+02  d E =-.140493E-01
 ZBRENT: can't locate minimum, use default step
 trial-energy change:   -0.014049  1 .order   -0.014561   -0.016522   -0.012599
 step:   0.8196(harm=  0.8630)  dis= 0.05078  next Energy=   -60.848674 (dE=-0.348E-01)
 bond charge predicted
       N       E                     dE             d eps       ncg     rms          rms(c)
DAV:   1    -0.610306208477E+02   -0.20266E+00   -0.22040E+01   384   0.309E+01    0.234E+00
DAV:   2    -0.608897714267E+02    0.14085E+00   -0.19058E+00   488   0.535E+00    0.123E+00
DAV:   3    -0.608509559022E+02    0.38816E-01   -0.18843E-01   464   0.207E+00    0.651E-01
DAV:   4    -0.608422632328E+02    0.86927E-02   -0.29947E-02   472   0.112E+00    0.255E-01
DAV:   5    -0.608417798855E+02    0.48335E-03   -0.49104E-03   512   0.417E-01    0.837E-02
DAV:   6    -0.608418720043E+02   -0.92119E-04   -0.90511E-04   472   0.141E-01
  19 F= -.60841872E+02 E0= -.60828682E+02  d E =-.279903E-01
 curvature:  -2.81 expect dE=-0.402E+00 dE for cont linesearch -0.133E-03
 trial: gam= 2.40071 g(F)=  0.133E+00 g(S)=  0.107E-01 ort =-0.499E-02 (trialstep = 0.547E-01)
 search vector abs. value=  0.316E+01
 bond charge predicted
       N       E                     dE             d eps       ncg     rms          rms(c)
DAV:   1    -0.608583524721E+02   -0.16573E-01   -0.98864E-01   448   0.662E+00    0.493E-01
DAV:   2    -0.608505983196E+02    0.77542E-02   -0.77405E-02   464   0.971E-01    0.264E-01
DAV:   3    -0.608488089306E+02    0.17894E-02   -0.86462E-03   448   0.401E-01    0.134E-01
DAV:   4    -0.608484372839E+02    0.37165E-03   -0.20243E-03   480   0.265E-01    0.429E-02
DAV:   5    -0.608485315172E+02   -0.94233E-04   -0.27249E-04   336   0.105E-01
  20 F= -.60848532E+02 E0= -.60835866E+02  d E =-.665951E-02
 ZBRENT: can't locate minimum, use default step
 trial-energy change:   -0.006660  1 .order   -0.006637   -0.007184   -0.006090
 step:   0.2189(harm=  0.3595)  dis= 0.03163  next Energy=   -60.865466 (dE=-0.236E-01)
 bond charge predicted
       N       E                     dE             d eps       ncg     rms          rms(c)
DAV:   1    -0.609495420498E+02   -0.10110E+00   -0.88526E+00   384   0.196E+01    0.153E+00
DAV:   2    -0.608832894683E+02    0.66253E-01   -0.82890E-01   464   0.334E+00    0.817E-01
DAV:   3    -0.608666500477E+02    0.16639E-01   -0.79932E-02   448   0.133E+00    0.413E-01
DAV:   4    -0.608626874728E+02    0.39626E-02   -0.15918E-02   480   0.792E-01    0.136E-01
DAV:   5    -0.608625777601E+02    0.10971E-03   -0.23845E-03   544   0.307E-01    0.505E-02
DAV:   6    -0.608626237711E+02   -0.46011E-04   -0.40521E-04   368   0.101E-01
  21 F= -.60862624E+02 E0= -.60851123E+02  d E =-.207518E-01
 curvature:  -3.41 expect dE=-0.375E+00 dE for cont linesearch -0.605E-02
 ZBRENT: increasing intervall
 opt :   0.5473  next Energy=   -60.875276 (dE=-0.334E-01)
 bond charge predicted
       N       E                     dE             d eps       ncg     rms          rms(c)
DAV:   1    -0.612367076954E+02   -0.37413E+00   -0.35495E+01   384   0.389E+01    0.319E+00
DAV:   2    -0.609448887948E+02    0.29182E+00   -0.30865E+00   480   0.685E+00    0.159E+00
DAV:   3    -0.608865457863E+02    0.58343E-01   -0.24551E-01   456   0.270E+00    0.797E-01
DAV:   4    -0.608727822259E+02    0.13764E-01   -0.44649E-02   480   0.136E+00    0.295E-01
DAV:   5    -0.608719110613E+02    0.87116E-03   -0.65596E-03   520   0.491E-01    0.948E-02
DAV:   6    -0.608720271379E+02   -0.11608E-03   -0.97935E-04   464   0.158E-01    0.434E-02
DAV:   7    -0.608723897071E+02   -0.36257E-03   -0.29085E-04   384   0.777E-02    0.156E-02
DAV:   8    -0.608726760538E+02   -0.28635E-03   -0.10281E-04   336   0.448E-02    0.981E-03
DAV:   9    -0.608729755964E+02   -0.29954E-03   -0.18932E-04   400   0.483E-02    0.738E-03
DAV:  10    -0.608730658961E+02   -0.90300E-04   -0.36024E-05   368   0.245E-02
  22 F= -.60873066E+02 E0= -.60863616E+02  d E =-.311939E-01
 curvature:  -7.13 expect dE=-0.100E+01 dE for cont linesearch -0.107E-03
 trial: gam= 0.45529 g(F)=  0.106E+00 g(S)=  0.351E-01 ort =-0.690E-02 (trialstep = 0.153E+00)
 search vector abs. value=  0.789E+00
 bond charge predicted
       N       E                     dE             d eps       ncg     rms          rms(c)
DAV:   1    -0.609063757805E+02   -0.33400E-01   -0.19521E+00   384   0.932E+00    0.615E-01
DAV:   2    -0.608942410043E+02    0.12135E-01   -0.14585E-01   448   0.150E+00    0.351E-01
DAV:   3    -0.608913256379E+02    0.29154E-02   -0.10821E-02   464   0.510E-01    0.188E-01
DAV:   4    -0.608904262192E+02    0.89942E-03   -0.33857E-03   512   0.365E-01    0.571E-02
DAV:   5    -0.608904139943E+02    0.12225E-04   -0.46117E-04   480   0.137E-01
  23 F= -.60890414E+02 E0= -.60881411E+02  d E =-.173481E-01
 trial-energy change:   -0.017348  1 .order   -0.017733   -0.021089   -0.014378
 step:   0.4816(harm=  0.4816)  dis= 0.02982  next Energy=   -60.906203 (dE=-0.331E-01)
 bond charge predicted
       N       E                     dE             d eps       ncg     rms          rms(c)
DAV:   1    -0.609781423464E+02   -0.87716E-01   -0.89604E+00   384   0.199E+01    0.134E+00
DAV:   2    -0.609209145953E+02    0.57228E-01   -0.66870E-01   464   0.322E+00    0.751E-01
DAV:   3    -0.609074504772E+02    0.13464E-01   -0.46326E-02   464   0.111E+00    0.403E-01
DAV:   4    -0.609033383796E+02    0.41121E-02   -0.13669E-02   496   0.746E-01    0.127E-01
DAV:   5    -0.609033202183E+02    0.18161E-04   -0.18636E-03   544   0.275E-01    0.458E-02
DAV:   6    -0.609034122906E+02   -0.92072E-04   -0.25834E-04   352   0.870E-02
  24 F= -.60903412E+02 E0= -.60895111E+02  d E =-.303464E-01
 curvature:  -1.38 expect dE=-0.138E+00 dE for cont linesearch -0.440E-04
 trial: gam= 0.75780 g(F)=  0.933E-01 g(S)=  0.676E-02 ort =-0.501E-02 (trialstep = 0.219E+00)
 search vector abs. value=  0.546E+00
 bond charge predicted
       N       E                     dE             d eps       ncg     rms          rms(c)
DAV:   1    -0.609390100996E+02   -0.35690E-01   -0.26448E+00   384   0.109E+01    0.712E-01
DAV:   2    -0.609228264361E+02    0.16184E-01   -0.16142E-01   480   0.173E+00    0.412E-01
DAV:   3    -0.609185227563E+02    0.43037E-02   -0.12442E-02   456   0.603E-01    0.222E-01
DAV:   4    -0.609173213055E+02    0.12015E-02   -0.39106E-03   488   0.391E-01    0.771E-02
DAV:   5    -0.609173736543E+02   -0.52349E-04   -0.65855E-04   464   0.155E-01
  25 F= -.60917374E+02 E0= -.60909879E+02  d E =-.139614E-01
 trial-energy change:   -0.013961  1 .order   -0.014723   -0.021066   -0.008380
 step:   0.3636(harm=  0.3636)  dis= 0.01535  next Energy=   -60.920903 (dE=-0.175E-01)
 bond charge predicted
       N       E                     dE             d eps       ncg     rms          rms(c)
DAV:   1    -0.609292129551E+02   -0.11892E-01   -0.11562E+00   384   0.723E+00    0.470E-01
DAV:   2    -0.609219529037E+02    0.72601E-02   -0.67736E-02   480   0.114E+00    0.270E-01
DAV:   3    -0.609200568846E+02    0.18960E-02   -0.51940E-03   496   0.400E-01    0.143E-01
DAV:   4    -0.609195629752E+02    0.49391E-03   -0.15854E-03   472   0.248E-01    0.499E-02
DAV:   5    -0.609196173107E+02   -0.54336E-04   -0.24894E-04   328   0.968E-02
  26 F= -.60919617E+02 E0= -.60912572E+02  d E =-.162050E-01
 curvature:  -1.03 expect dE=-0.359E-01 dE for cont linesearch -0.659E-05
 trial: gam= 0.30025 g(F)=  0.249E-01 g(S)=  0.997E-02 ort =-0.187E-02 (trialstep = 0.248E+00)
 search vector abs. value=  0.829E-01
 bond charge predicted
       N       E                     dE             d eps       ncg     rms          rms(c)
DAV:   1    -0.609305662907E+02   -0.11003E-01   -0.43597E-01   448   0.483E+00    0.342E-01
DAV:   2    -0.609271162814E+02    0.34500E-02   -0.24992E-02   480   0.684E-01    0.179E-01
DAV:   3    -0.609263889663E+02    0.72732E-03   -0.23457E-03   456   0.284E-01    0.828E-02
DAV:   4    -0.609262601224E+02    0.12884E-03   -0.55559E-04   496   0.144E-01    0.260E-02
DAV:   5    -0.609262915452E+02   -0.31423E-04   -0.79459E-05   320   0.554E-02
  27 F= -.60926292E+02 E0= -.60919567E+02  d E =-.667423E-02
 trial-energy change:   -0.006674  1 .order   -0.006677   -0.008501   -0.004853
 step:   0.5775(harm=  0.5775)  dis= 0.00967  next Energy=   -60.929521 (dE=-0.990E-02)
 bond charge predicted
       N       E                     dE             d eps       ncg     rms          rms(c)
DAV:   1    -0.609372821940E+02   -0.11022E-01   -0.77483E-01   448   0.643E+00    0.458E-01
DAV:   2    -0.609311328280E+02    0.61494E-02   -0.44040E-02   448   0.911E-01    0.239E-01
DAV:   3    -0.609298519699E+02    0.12809E-02   -0.40110E-03   464   0.379E-01    0.110E-01
DAV:   4    -0.609295918325E+02    0.26014E-03   -0.92625E-04   480   0.188E-01    0.343E-02
DAV:   5    -0.609296017373E+02   -0.99049E-05   -0.13010E-04   320   0.720E-02
  28 F= -.60929602E+02 E0= -.60923269E+02  d E =-.998443E-02
 curvature:  -0.70 expect dE=-0.210E-01 dE for cont linesearch -0.420E-05
 trial: gam= 0.82857 g(F)=  0.272E-01 g(S)=  0.295E-02 ort = 0.706E-03 (trialstep = 0.295E+00)
 search vector abs. value=  0.882E-01
 bond charge predicted
       N       E                     dE             d eps       ncg     rms          rms(c)
DAV:   1    -0.609414748629E+02   -0.11883E-01   -0.74312E-01   448   0.617E+00    0.420E-01
DAV:   2    -0.609364666442E+02    0.50082E-02   -0.32471E-02   432   0.908E-01    0.229E-01
DAV:   3    -0.609351138629E+02    0.13528E-02   -0.47520E-03   504   0.403E-01    0.100E-01
DAV:   4    -0.609349039323E+02    0.20993E-03   -0.68627E-04   512   0.161E-01    0.418E-02
DAV:   5    -0.609349126738E+02   -0.87415E-05   -0.15495E-04   320   0.703E-02
  29 F= -.60934913E+02 E0= -.60928573E+02  d E =-.531094E-02
 trial-energy change:   -0.005311  1 .order   -0.005455   -0.009057   -0.001854
 step:   0.3709(harm=  0.3709)  dis= 0.00822  next Energy=   -60.935296 (dE=-0.569E-02)
 bond charge predicted
       N       E                     dE             d eps       ncg     rms          rms(c)
DAV:   1    -0.609356135567E+02   -0.70962E-03   -0.49252E-02   448   0.159E+00    0.108E-01
DAV:   2    -0.609352725486E+02    0.34101E-03   -0.20866E-03   480   0.235E-01    0.586E-02
DAV:   3    -0.609351903813E+02    0.82167E-04   -0.30350E-04   360   0.105E-01
  30 F= -.60935190E+02 E0= -.60928862E+02  d E =-.558864E-02
 curvature:  -0.53 expect dE=-0.733E-02 dE for cont linesearch -0.108E-04
 trial: gam= 0.49954 g(F)=  0.112E-01 g(S)=  0.257E-02 ort = 0.134E-02 (trialstep = 0.310E+00)
 search vector abs. value=  0.371E-01
 bond charge predicted
       N       E                     dE             d eps       ncg     rms          rms(c)
DAV:   1    -0.609416394933E+02   -0.63669E-02   -0.31591E-01   384   0.385E+00    0.271E-01
DAV:   2    -0.609393491135E+02    0.22904E-02   -0.19531E-02   464   0.616E-01    0.151E-01
DAV:   3    -0.609387919405E+02    0.55717E-03   -0.14757E-03   480   0.223E-01    0.762E-02
DAV:   4    -0.609386295780E+02    0.16236E-03   -0.47193E-04   472   0.138E-01    0.215E-02
DAV:   5    -0.609386504778E+02   -0.20900E-04   -0.61967E-05   328   0.540E-02
  31 F= -.60938650E+02 E0= -.60932381E+02  d E =-.346010E-02
 trial-energy change:   -0.003460  1 .order   -0.003694   -0.004476   -0.002912
 step:   0.8878(harm=  0.8878)  dis= 0.00817  next Energy=   -60.941596 (dE=-0.641E-02)
 bond charge predicted
       N       E                     dE             d eps       ncg     rms          rms(c)
DAV:   1    -0.609519226556E+02   -0.13293E-01   -0.11083E+00   384   0.719E+00    0.503E-01
DAV:   2    -0.609439641808E+02    0.79585E-02   -0.70017E-02   464   0.115E+00    0.279E-01
DAV:   3    -0.609420957753E+02    0.18684E-02   -0.51914E-03   472   0.418E-01    0.140E-01
DAV:   4    -0.609415435297E+02    0.55225E-03   -0.15734E-03   496   0.255E-01    0.403E-02
DAV:   5    -0.609415468064E+02   -0.32768E-05   -0.21314E-04   344   0.988E-02
  32 F= -.60941547E+02 E0= -.60935364E+02  d E =-.635643E-02
 curvature:  -1.14 expect dE=-0.203E-01 dE for cont linesearch -0.916E-04
 trial: gam= 1.12195 g(F)=  0.153E-01 g(S)=  0.252E-02 ort = 0.173E-02 (trialstep = 0.231E+00)
 search vector abs. value=  0.684E-01
 bond charge predicted
       N       E                     dE             d eps       ncg     rms          rms(c)
DAV:   1    -0.609481660863E+02   -0.66226E-02   -0.32661E-01   384   0.375E+00    0.253E-01
DAV:   2    -0.609460942070E+02    0.20719E-02   -0.18723E-02   448   0.619E-01    0.145E-01
DAV:   3    -0.609455689933E+02    0.52521E-03   -0.12553E-03   472   0.216E-01    0.746E-02
DAV:   4    -0.609454278044E+02    0.14119E-03   -0.45524E-04   472   0.138E-01    0.227E-02
DAV:   5    -0.609454605859E+02   -0.32782E-04   -0.60011E-05   328   0.544E-02
  33 F= -.60945461E+02 E0= -.60939443E+02  d E =-.391378E-02
 trial-energy change:   -0.003914  1 .order   -0.003981   -0.004559   -0.003403
 step:   0.9113(harm=  0.9113)  dis= 0.01202  next Energy=   -60.950538 (dE=-0.899E-02)
 bond charge predicted
       N       E                     dE             d eps       ncg     rms          rms(c)
DAV:   1    -0.609737799543E+02   -0.28352E-01   -0.28408E+00   384   0.110E+01    0.756E-01
DAV:   2    -0.609560184981E+02    0.17761E-01   -0.16725E-01   448   0.182E+00    0.431E-01
DAV:   3    -0.609516168276E+02    0.44017E-02   -0.10640E-02   440   0.631E-01    0.222E-01
DAV:   4    -0.609502599119E+02    0.13569E-02   -0.37321E-03   512   0.396E-01    0.662E-02
DAV:   5    -0.609502514646E+02    0.84473E-05   -0.54421E-04   488   0.156E-01
  34 F= -.60950251E+02 E0= -.60944685E+02  d E =-.870466E-02
 curvature:  -1.58 expect dE=-0.688E-01 dE for cont linesearch -0.420E-04
 trial: gam= 2.61420 g(F)=  0.420E-01 g(S)=  0.159E-02 ort = 0.135E-02 (trialstep = 0.485E-01)
 search vector abs. value=  0.518E+00
 bond charge predicted
       N       E                     dE             d eps       ncg     rms          rms(c)
DAV:   1    -0.609533330424E+02   -0.30731E-02   -0.10653E-01   384   0.210E+00    0.147E-01
DAV:   2    -0.609526344972E+02    0.69855E-03   -0.52009E-03   496   0.337E-01    0.828E-02
DAV:   3    -0.609524592710E+02    0.17523E-03   -0.41276E-04   432   0.124E-01    0.399E-02
DAV:   4    -0.609524583948E+02    0.87616E-06   -0.12261E-04   344   0.725E-02
  35 F= -.60952458E+02 E0= -.60946924E+02  d E =-.220693E-02
 ZBRENT: can't locate minimum, use default step
 trial-energy change:   -0.002207  1 .order   -0.002140   -0.002282   -0.001998
 step:   0.1939(harm=  0.3892)  dis= 0.00737  next Energy=   -60.959416 (dE=-0.916E-02)
 bond charge predicted
       N       E                     dE             d eps       ncg     rms          rms(c)
DAV:   1    -0.609657758335E+02   -0.13317E-01   -0.96437E-01   384   0.630E+00    0.445E-01
DAV:   2    -0.609596504470E+02    0.61254E-02   -0.47601E-02   448   0.101E+00    0.252E-01
DAV:   3    -0.609580011960E+02    0.16493E-02   -0.36964E-03   472   0.370E-01    0.122E-01
DAV:   4    -0.609575805250E+02    0.42067E-03   -0.10962E-03   504   0.214E-01    0.375E-02
DAV:   5    -0.609576033629E+02   -0.22838E-04   -0.15791E-04   344   0.830E-02
  36 F= -.60957603E+02 E0= -.60952129E+02  d E =-.735190E-02
 curvature:  -1.44 expect dE=-0.375E-01 dE for cont linesearch -0.291E-02
 ZBRENT: increasing intervall
 opt :   0.4846  next Energy=   -60.964456 (dE=-0.142E-01)
 bond charge predicted
       N       E                     dE             d eps       ncg     rms          rms(c)
DAV:   1    -0.609965641511E+02   -0.38984E-01   -0.38735E+00   384   0.126E+01    0.902E-01
DAV:   2    -0.609715557976E+02    0.25008E-01   -0.19859E-01   448   0.203E+00    0.508E-01
DAV:   3    -0.609650022137E+02    0.65536E-02   -0.15118E-02   456   0.750E-01    0.247E-01
DAV:   4    -0.609633022139E+02    0.17000E-02   -0.43448E-03   496   0.417E-01    0.766E-02
DAV:   5    -0.609632905225E+02    0.11691E-04   -0.67213E-04   488   0.163E-01
  37 F= -.60963291E+02 E0= -.60957960E+02  d E =-.130391E-01
 curvature:  -3.38 expect dE=-0.101E+00 dE for cont linesearch -0.127E-02
 ZBRENT: increasing intervall
 opt :   1.0662  next Energy=   -60.960679 (dE=-0.104E-01)
 bond charge predicted
       N       E                     dE             d eps       ncg     rms          rms(c)
DAV:   1    -0.610949131413E+02   -0.13161E+00   -0.15657E+01   384   0.252E+01    0.186E+00
DAV:   2    -0.609908076300E+02    0.10411E+00   -0.86457E-01   472   0.419E+00    0.104E+00
DAV:   3    -0.609647022986E+02    0.26105E-01   -0.63419E-02   464   0.156E+00    0.510E-01
DAV:   4    -0.609575997286E+02    0.71026E-02   -0.17265E-02   496   0.804E-01    0.159E-01
DAV:   5    -0.609573277344E+02    0.27199E-03   -0.25945E-03   528   0.319E-01    0.507E-02
DAV:   6    -0.609575126549E+02   -0.18492E-03   -0.44649E-04   440   0.114E-01    0.259E-02
DAV:   7    -0.609579132291E+02   -0.40057E-03   -0.22558E-04   424   0.713E-02    0.127E-02
DAV:   8    -0.609582091774E+02   -0.29595E-03   -0.12511E-04   384   0.479E-02    0.888E-03
DAV:   9    -0.609583944244E+02   -0.18525E-03   -0.12879E-04   400   0.390E-02    0.516E-03
DAV:  10    -0.609584380003E+02   -0.43576E-04   -0.18455E-05   368   0.194E-02
  38 F= -.60958438E+02 E0= -.60953543E+02  d E =-.818654E-02
 curvature:   6.95 expect dE= 0.931E+00 dE for cont linesearch  0.115E-01
 ZBRENT: bracketing found
 ZBRENT: interpolating
 opt :   0.6725  next Energy=   -60.964601 (dE=-0.143E-01)
 bond charge predicted
       N       E                     dE             d eps       ncg     rms          rms(c)
DAV:   1    -0.610239062655E+02   -0.65512E-01   -0.73023E+00   384   0.178E+01    0.121E+00
DAV:   2    -0.609801556420E+02    0.43751E-01   -0.26056E-01   408   0.282E+00    0.677E-01
DAV:   3    -0.609663307422E+02    0.13825E-01   -0.38923E-02   472   0.110E+00    0.252E-01
DAV:   4    -0.609646967753E+02    0.16340E-02   -0.44130E-03   480   0.420E-01    0.915E-02
DAV:   5    -0.609643746616E+02    0.32211E-03   -0.71652E-04   496   0.163E-01    0.289E-02
DAV:   6    -0.609643650753E+02    0.95863E-05   -0.28664E-04   328   0.788E-02
  39 F= -.60964365E+02 E0= -.60959313E+02  d E =-.141136E-01
 curvature:  -0.79 expect dE=-0.391E-01 dE for cont linesearch -0.890E-04
 trial: gam= 1.12152 g(F)=  0.369E-01 g(S)=  0.124E-01 ort =-0.762E-02 (trialstep = 0.131E+00)
 search vector abs. value=  0.684E+00
 bond charge predicted
       N       E                     dE             d eps       ncg     rms          rms(c)
DAV:   1    -0.609774379169E+02   -0.13063E-01   -0.10515E+00   408   0.654E+00    0.457E-01
DAV:   2    -0.609718559424E+02    0.55820E-02   -0.47553E-02   448   0.104E+00    0.255E-01
DAV:   3    -0.609704576768E+02    0.13983E-02   -0.36893E-03   496   0.391E-01    0.115E-01
DAV:   4    -0.609702185335E+02    0.23914E-03   -0.93975E-04   480   0.206E-01    0.340E-02
DAV:   5    -0.609702094512E+02    0.90823E-05   -0.13347E-04   336   0.782E-02
  40 F= -.60970209E+02 E0= -.60965058E+02  d E =-.584438E-02
 ZBRENT: can't locate minimum, use default step
 trial-energy change:   -0.005844  1 .order   -0.005267   -0.005354   -0.005179
 step:   0.5250(harm=  4.0173)  dis= 0.02088  next Energy=   -61.046303 (dE=-0.819E-01)
 bond charge predicted
       N       E                     dE             d eps       ncg     rms          rms(c)
DAV:   1    -0.610524991610E+02   -0.82281E-01   -0.94564E+00   384   0.195E+01    0.139E+00
DAV:   2    -0.609983149566E+02    0.54184E-01   -0.47154E-01   424   0.316E+00    0.777E-01
DAV:   3    -0.609840831885E+02    0.14232E-01   -0.33999E-02   480   0.119E+00    0.366E-01
DAV:   4    -0.609805868936E+02    0.34963E-02   -0.97927E-03   480   0.643E-01    0.108E-01
DAV:   5    -0.609804898599E+02    0.97034E-04   -0.14606E-03   512   0.252E-01    0.381E-02
DAV:   6    -0.609805935081E+02   -0.10365E-03   -0.22241E-04   328   0.844E-02    0.175E-02
DAV:   7    -0.609808283451E+02   -0.23484E-03   -0.10815E-04   328   0.569E-02    0.839E-03
DAV:   8    -0.609809975305E+02   -0.16919E-03   -0.57733E-05   360   0.379E-02    0.576E-03
DAV:   9    -0.609811039215E+02   -0.10639E-03   -0.41674E-05   384   0.254E-02    0.346E-03
DAV:  10    -0.609811461931E+02   -0.42272E-04   -0.16393E-05   352   0.161E-02
  41 F= -.60981146E+02 E0= -.60976035E+02  d E =-.167811E-01
 curvature:  -6.48 expect dE=-0.350E+00 dE for cont linesearch -0.237E-02
 ZBRENT: increasing intervall
 opt :   1.3125  next Energy=   -60.974994 (dE=-0.106E-01)
 bond charge predicted
       N       E                     dE             d eps       ncg     rms          rms(c)
DAV:   1    -0.612788627456E+02   -0.29776E+00   -0.38533E+01   384   0.392E+01    0.292E+00
DAV:   2    -0.610455544583E+02    0.23331E+00   -0.21648E+00   448   0.670E+00    0.160E+00
DAV:   3    -0.609884424919E+02    0.57112E-01   -0.14512E-01   456   0.251E+00    0.769E-01
DAV:   4    -0.609737788375E+02    0.14664E-01   -0.40639E-02   456   0.127E+00    0.229E-01
DAV:   5    -0.609730201449E+02    0.75869E-03   -0.61599E-03   496   0.509E-01    0.774E-02
DAV:   6    -0.609731648430E+02   -0.14470E-03   -0.10765E-03   472   0.176E-01    0.358E-02
DAV:   7    -0.609736348888E+02   -0.47005E-03   -0.31252E-04   368   0.903E-02    0.166E-02
DAV:   8    -0.609740052561E+02   -0.37037E-03   -0.17502E-04   432   0.596E-02    0.114E-02
DAV:   9    -0.609742552013E+02   -0.24995E-03   -0.14283E-04   336   0.449E-02    0.630E-03
DAV:  10    -0.609743339063E+02   -0.78705E-04   -0.51784E-05   384   0.258E-02
  42 F= -.60974334E+02 E0= -.60969474E+02  d E =-.996883E-02
 curvature:  16.80 expect dE= 0.530E+01 dE for cont linesearch  0.287E-01
 ZBRENT: bracketing found
 ZBRENT: interpolating
 opt :   0.7741  next Energy=   -60.983117 (dE=-0.188E-01)
 bond charge predicted
       N       E                     dE             d eps       ncg     rms          rms(c)
DAV:   1    -0.611118385415E+02   -0.13758E+00   -0.18653E+01   384   0.292E+01    0.190E+00
DAV:   2    -0.610213146782E+02    0.90524E-01   -0.58360E-01   384   0.467E+00    0.105E+00
DAV:   3    -0.609866621496E+02    0.34653E-01   -0.13835E-01   480   0.189E+00    0.318E-01
DAV:   4    -0.609840924009E+02    0.25697E-02   -0.18483E-02   496   0.617E-01    0.150E-01
DAV:   5    -0.609832143963E+02    0.87800E-03   -0.35190E-03   544   0.281E-01    0.596E-02
DAV:   6    -0.609830414508E+02    0.17295E-03   -0.11309E-03   448   0.150E-01    0.252E-02
DAV:   7    -0.609830442377E+02   -0.27869E-05   -0.66810E-05   352   0.487E-02
  43 F= -.60983044E+02 E0= -.60978131E+02  d E =-.186792E-01
 curvature:  -1.15 expect dE=-0.116E+00 dE for cont linesearch -0.494E-04
 trial: gam= 1.90159 g(F)=  0.923E-01 g(S)=  0.883E-02 ort =-0.541E-02 (trialstep = 0.696E-01)
 search vector abs. value=  0.255E+01
 bond charge predicted
       N       E                     dE             d eps       ncg     rms          rms(c)
DAV:   1    -0.609972400228E+02   -0.14199E-01   -0.11518E+00   472   0.683E+00    0.461E-01
DAV:   2    -0.609917046123E+02    0.55354E-02   -0.45022E-02   440   0.109E+00    0.257E-01
DAV:   3    -0.609901949670E+02    0.15096E-02   -0.42620E-03   488   0.419E-01    0.110E-01
DAV:   4    -0.609899828129E+02    0.21215E-03   -0.74793E-04   472   0.187E-01    0.368E-02
DAV:   5    -0.609899853719E+02   -0.25590E-05   -0.11952E-04   336   0.705E-02
  44 F= -.60989985E+02 E0= -.60985078E+02  d E =-.694113E-02
 ZBRENT: can't locate minimum, use default step
 trial-energy change:   -0.006941  1 .order   -0.006289   -0.006320   -0.006259
 step:   0.2783(harm=  7.1502)  dis= 0.01881  next Energy=   -61.307753 (dE=-0.325E+00)
 bond charge predicted
       N       E                     dE             d eps       ncg     rms          rms(c)
DAV:   1    -0.610751524405E+02   -0.85170E-01   -0.10349E+01   384   0.204E+01    0.141E+00
DAV:   2    -0.610220723118E+02    0.53080E-01   -0.44030E-01   400   0.333E+00    0.779E-01
DAV:   3    -0.610070982959E+02    0.14974E-01   -0.37295E-02   488   0.127E+00    0.349E-01
DAV:   4    -0.610040482728E+02    0.30500E-02   -0.75269E-03   496   0.570E-01    0.115E-01
DAV:   5    -0.610039272607E+02    0.12101E-03   -0.12241E-03   472   0.217E-01    0.344E-02
DAV:   6    -0.610040516419E+02   -0.12438E-03   -0.18478E-04   336   0.784E-02    0.168E-02
DAV:   7    -0.610042885265E+02   -0.23688E-03   -0.11484E-04   336   0.544E-02    0.902E-03
DAV:   8    -0.610044453607E+02   -0.15683E-03   -0.50866E-05   368   0.357E-02    0.561E-03
DAV:   9    -0.610045619038E+02   -0.11654E-03   -0.53491E-05   360   0.301E-02    0.376E-03
DAV:  10    -0.610045959962E+02   -0.34092E-04   -0.13162E-05   352   0.182E-02
  45 F= -.61004596E+02 E0= -.61000119E+02  d E =-.215518E-01
 curvature:  -5.84 expect dE=-0.239E+00 dE for cont linesearch -0.580E-02
 ZBRENT: increasing intervall
 opt :   0.6959  next Energy=   -61.009096 (dE=-0.261E-01)
 bond charge predicted
       N       E                     dE             d eps       ncg     rms          rms(c)
DAV:   1    -0.613049202027E+02   -0.30036E+00   -0.42112E+01   384   0.411E+01    0.295E+00
DAV:   2    -0.610808201495E+02    0.22410E+00   -0.20970E+00   456   0.722E+00    0.161E+00
DAV:   3    -0.610217313018E+02    0.59089E-01   -0.15719E-01   440   0.266E+00    0.750E-01
DAV:   4    -0.610086217540E+02    0.13110E-01   -0.34048E-02   488   0.117E+00    0.251E-01
DAV:   5    -0.610077654498E+02    0.85630E-03   -0.57416E-03   456   0.462E-01    0.743E-02
DAV:   6    -0.610079565918E+02   -0.19114E-03   -0.93013E-04   480   0.168E-01    0.355E-02
DAV:   7    -0.610084382339E+02   -0.48164E-03   -0.34710E-04   360   0.935E-02    0.181E-02
DAV:   8    -0.610087898323E+02   -0.35160E-03   -0.16036E-04   376   0.595E-02    0.113E-02
DAV:   9    -0.610090481513E+02   -0.25832E-03   -0.17652E-04   432   0.489E-02    0.767E-03
DAV:  10    -0.610091270453E+02   -0.78894E-04   -0.38116E-05   360   0.271E-02
  46 F= -.61009127E+02 E0= -.61005664E+02  d E =-.260828E-01
 curvature:  -4.53 expect dE=-0.638E+00 dE for cont linesearch -0.127E-02
 ZBRENT: bracketing found
 ZBRENT: interpolating
 opt :   0.5511  next Energy=   -61.011061 (dE=-0.280E-01)
 bond charge predicted
       N       E                     dE             d eps       ncg     rms          rms(c)
DAV:   1    -0.610453710325E+02   -0.36323E-01   -0.51696E+00   384   0.150E+01    0.977E-01
DAV:   2    -0.610213590122E+02    0.24012E-01   -0.15416E-01   400   0.237E+00    0.544E-01
DAV:   3    -0.610119561529E+02    0.94029E-02   -0.36080E-02   480   0.102E+00    0.169E-01
DAV:   4    -0.610112607319E+02    0.69542E-03   -0.34777E-03   520   0.339E-01    0.753E-02
DAV:   5    -0.610110459045E+02    0.21483E-03   -0.55830E-04   496   0.133E-01    0.256E-02
DAV:   6    -0.610110480156E+02   -0.21110E-05   -0.17132E-04   320   0.677E-02
  47 F= -.61011048E+02 E0= -.61007313E+02  d E =-.280038E-01
 curvature:  -6.91 expect dE=-0.568E+00 dE for cont linesearch -0.108E-03
 trial: gam= 0.87934 g(F)=  0.715E-01 g(S)=  0.106E-01 ort =-0.631E-02 (trialstep = 0.166E+00)
 search vector abs. value=  0.205E+01
 bond charge predicted
       N       E                     dE             d eps       ncg     rms          rms(c)
DAV:   1    -0.610529576629E+02   -0.41912E-01   -0.54763E+00   384   0.148E+01    0.922E-01
DAV:   2    -0.610318745601E+02    0.21083E-01   -0.18271E-01   408   0.235E+00    0.512E-01
DAV:   3    -0.610253057944E+02    0.65688E-02   -0.16725E-02   464   0.835E-01    0.214E-01
DAV:   4    -0.610241192225E+02    0.11866E-02   -0.27294E-03   480   0.337E-01    0.686E-02
DAV:   5    -0.610240400352E+02    0.79187E-04   -0.34794E-04   432   0.122E-01
  48 F= -.61024040E+02 E0= -.61020515E+02  d E =-.129920E-01
 ZBRENT: can't locate minimum, use default step
 trial-energy change:   -0.012992  1 .order   -0.012799   -0.012698   -0.012900
 step:   0.6636(harm=  0.6636)  dis= 0.04049  next Energy=   -61.063460 (dE=-0.524E-01)
 bond charge predicted
       N       E                     dE             d eps       ncg     rms          rms(c)
DAV:   1    -0.613320473474E+02   -0.30793E+00   -0.50214E+01   384   0.452E+01    0.294E+00
DAV:   2    -0.611252381026E+02    0.20681E+00   -0.23180E+00   472   0.802E+00    0.160E+00
DAV:   3    -0.610690418590E+02    0.56196E-01   -0.14945E-01   456   0.264E+00    0.765E-01
DAV:   4    -0.610555250052E+02    0.13517E-01   -0.33581E-02   480   0.115E+00    0.244E-01
DAV:   5    -0.610551626528E+02    0.36235E-03   -0.48843E-03   456   0.436E-01    0.724E-02
DAV:   6    -0.610555384157E+02   -0.37576E-03   -0.81510E-04   464   0.158E-01    0.355E-02
DAV:   7    -0.610561549465E+02   -0.61653E-03   -0.42413E-04   368   0.954E-02    0.193E-02
DAV:   8    -0.610565602762E+02   -0.40533E-03   -0.23590E-04   392   0.669E-02    0.124E-02
DAV:   9    -0.610567905067E+02   -0.23023E-03   -0.15571E-04   392   0.475E-02    0.774E-03
DAV:  10    -0.610568614099E+02   -0.70903E-04   -0.46526E-05   384   0.274E-02
  49 F= -.61056861E+02 E0= -.61054325E+02  d E =-.458134E-01
 curvature: -13.40 expect dE=-0.995E+00 dE for cont linesearch -0.212E-01
 ZBRENT: increasing intervall
 opt :   1.6590  next Energy=   -61.092633 (dE=-0.816E-01)
 bond charge predicted
       N       E                     dE             d eps       ncg     rms          rms(c)
DAV:   1    -0.622367414555E+02   -0.11800E+01   -0.21688E+02   384   0.999E+01    0.666E+00
DAV:   2    -0.613513913382E+02    0.88535E+00   -0.11190E+01   432   0.187E+01    0.328E+00
DAV:   3    -0.611478225203E+02    0.20357E+00   -0.62327E-01   488   0.557E+00    0.164E+00
DAV:   4    -0.610951484413E+02    0.52674E-01   -0.12370E-01   488   0.222E+00    0.520E-01
DAV:   5    -0.610927065073E+02    0.24419E-02   -0.14007E-02   496   0.766E-01    0.161E-01
DAV:   6    -0.610933389054E+02   -0.63240E-03   -0.23917E-03   448   0.286E-01    0.672E-02
DAV:   7    -0.610943633433E+02   -0.10244E-02   -0.10473E-03   392   0.158E-01    0.376E-02
DAV:   8    -0.610952140065E+02   -0.85066E-03   -0.11982E-03   376   0.141E-01    0.251E-02
DAV:   9    -0.610954397260E+02   -0.22572E-03   -0.32527E-04   416   0.752E-02    0.150E-02
DAV:  10    -0.610955205707E+02   -0.80845E-04   -0.12496E-04   384   0.479E-02
  50 F= -.61095521E+02 E0= -.61094600E+02  d E =-.844726E-01
 curvature: -22.64 expect dE=-0.474E+01 dE for cont linesearch -0.647E-02
 ZBRENT: increasing intervall
 opt :   3.6498  next Energy=   -61.078646 (dE=-0.676E-01)
 bond charge predicted
       N       E                     dE             d eps       ncg     rms          rms(c)
DAV:   1    -0.644587793703E+02   -0.33633E+01   -0.11945E+03   400   0.282E+02    0.171E+01
DAV:   2    -0.619879606645E+02    0.24708E+01   -0.61751E+01   416   0.486E+01    0.764E+00
DAV:   3    -0.612641161836E+02    0.72384E+00   -0.37293E+00   512   0.141E+01    0.445E+00
DAV:   4    -0.610982054107E+02    0.16591E+00   -0.78427E-01   520   0.680E+00    0.124E+00
DAV:   5    -0.610833409825E+02    0.14864E-01   -0.82385E-02   520   0.201E+00    0.395E-01
DAV:   6    -0.610789854941E+02    0.43555E-02   -0.11868E-02   504   0.746E-01    0.155E-01
DAV:   7    -0.610762827925E+02    0.27027E-02   -0.40749E-03   464   0.356E-01    0.885E-02
DAV:   8    -0.610733034898E+02    0.29793E-02   -0.57231E-03   448   0.340E-01    0.830E-02
DAV:   9    -0.610723485593E+02    0.95493E-03   -0.11476E-03   464   0.164E-01    0.402E-02
DAV:  10    -0.610720736932E+02    0.27487E-03   -0.32363E-04   352   0.874E-02    0.267E-02
DAV:  11    -0.610721353948E+02   -0.61702E-04   -0.13010E-04   352   0.642E-02
  51 F= -.61072135E+02 E0= -.61072128E+02  d E =-.610874E-01
 curvature:  59.00 expect dE= 0.522E+02 dE for cont linesearch  0.322E-01
 ZBRENT: bracketing found
 ZBRENT: interpolating
 opt :   2.4948  next Energy=   -61.105628 (dE=-0.946E-01)
 bond charge predicted
       N       E                     dE             d eps       ncg     rms          rms(c)
DAV:   1    -0.629709461770E+02   -0.18989E+01   -0.36803E+02   384   0.153E+02    0.780E+00
DAV:   2    -0.620487432539E+02    0.92220E+00   -0.10695E+01   384   0.251E+01    0.450E+00
DAV:   3    -0.612018874671E+02    0.84686E+00   -0.23921E+00   480   0.862E+00    0.128E+00
DAV:   4    -0.611408871828E+02    0.61000E-01   -0.14228E-01   560   0.241E+00    0.638E-01
DAV:   5    -0.611143350301E+02    0.26552E-01   -0.45362E-02   504   0.119E+00    0.222E-01
DAV:   6    -0.611081179757E+02    0.62171E-02   -0.81386E-03   504   0.546E-01    0.110E-01
DAV:   7    -0.611046981320E+02    0.34198E-02   -0.37361E-03   464   0.312E-01    0.808E-02
DAV:   8    -0.611044284072E+02    0.26972E-03   -0.29150E-03   464   0.231E-01    0.435E-02
DAV:   9    -0.611050693159E+02   -0.64091E-03   -0.62427E-04   344   0.108E-01    0.330E-02
DAV:  10    -0.611066931398E+02   -0.16238E-02   -0.38495E-04   384   0.937E-02    0.173E-02
DAV:  11    -0.611079435306E+02   -0.12504E-02   -0.13803E-04   344   0.572E-02    0.924E-03
DAV:  12    -0.611084703187E+02   -0.52679E-03   -0.63618E-05   336   0.345E-02    0.495E-03
DAV:  13    -0.611087043410E+02   -0.23402E-03   -0.43225E-05   296   0.248E-02    0.191E-03
DAV:  14    -0.611087339241E+02   -0.29583E-04   -0.58291E-06   344   0.120E-02
  52 F= -.61108734E+02 E0= -.61108476E+02  d E =-.976859E-01
 curvature: -18.51 expect dE=-0.725E+01 dE for cont linesearch -0.206E-03
 trial: gam= 4.70210 g(F)=  0.329E+00 g(S)=  0.628E-01 ort = 0.478E-02 (trialstep = 0.283E-01)
 search vector abs. value=  0.457E+02
 bond charge predicted
       N       E                     dE             d eps       ncg     rms          rms(c)
DAV:   1    -0.611367816461E+02   -0.28077E-01   -0.35881E+00   384   0.120E+01    0.713E-01
DAV:   2    -0.611260727970E+02    0.10709E-01   -0.82025E-02   488   0.185E+00    0.405E-01
DAV:   3    -0.611200061052E+02    0.60667E-02   -0.21405E-02   496   0.839E-01    0.107E-01
DAV:   4    -0.611198980934E+02    0.10801E-03   -0.17348E-03   464   0.264E-01    0.520E-02
DAV:   5    -0.611198873469E+02    0.10746E-04   -0.18306E-04   328   0.889E-02
  53 F= -.61119887E+02 E0= -.61119686E+02  d E =-.111534E-01
 ZBRENT: can't locate minimum, use default step
 trial-energy change:   -0.011153  1 .order   -0.011741   -0.011726   -0.011756
 step:   0.1132(harm=  0.1132)  dis= 0.03307  next Energy=   -61.155879 (dE=-0.471E-01)
 bond charge predicted
       N       E                     dE             d eps       ncg     rms          rms(c)
DAV:   1    -0.613057925235E+02   -0.18589E+00   -0.32664E+01   384   0.362E+01    0.223E+00
DAV:   2    -0.612037286554E+02    0.10206E+00   -0.85517E-01   392   0.608E+00    0.124E+00
DAV:   3    -0.611535775755E+02    0.50151E-01   -0.17015E-01   504   0.249E+00    0.365E-01
DAV:   4    -0.611517271747E+02    0.18504E-02   -0.13443E-02   472   0.748E-01    0.163E-01
DAV:   5    -0.611515078978E+02    0.21928E-03   -0.16874E-03   432   0.251E-01    0.567E-02
DAV:   6    -0.611519712384E+02   -0.46334E-03   -0.40131E-04   352   0.126E-01    0.247E-02
DAV:   7    -0.611523532640E+02   -0.38203E-03   -0.24948E-04   360   0.813E-02    0.201E-02
DAV:   8    -0.611526841500E+02   -0.33089E-03   -0.30293E-04   352   0.690E-02    0.124E-02
DAV:   9    -0.611527921840E+02   -0.10803E-03   -0.71930E-05   344   0.365E-02    0.721E-03
DAV:  10    -0.611528619475E+02   -0.69763E-04   -0.32808E-05   344   0.235E-02
  54 F= -.61152862E+02 E0= -.61152755E+02  d E =-.441280E-01
 curvature:  -9.36 expect dE=-0.329E+01 dE for cont linesearch -0.273E-01
 ZBRENT: increasing intervall
 opt :   0.2830  next Energy=   -61.206290 (dE=-0.976E-01)
 bond charge predicted
       N       E                     dE             d eps       ncg     rms          rms(c)
DAV:   1    -0.618159919323E+02   -0.66320E+00   -0.13729E+02   384   0.772E+01    0.488E+00
DAV:   2    -0.614137284927E+02    0.40226E+00   -0.45234E+00   400   0.139E+01    0.260E+00
DAV:   3    -0.612243902232E+02    0.18934E+00   -0.60236E-01   504   0.494E+00    0.929E-01
DAV:   4    -0.612096307642E+02    0.14759E-01   -0.55240E-02   488   0.148E+00    0.374E-01
DAV:   5    -0.612073891084E+02    0.22417E-02   -0.56097E-03   472   0.478E-01    0.118E-01
DAV:   6    -0.612076491850E+02   -0.26008E-03   -0.13406E-03   488   0.228E-01    0.521E-02
DAV:   7    -0.612079606949E+02   -0.31151E-03   -0.10089E-03   400   0.157E-01    0.412E-02
DAV:   8    -0.612081195871E+02   -0.15889E-03   -0.64158E-04   368   0.106E-01    0.271E-02
DAV:   9    -0.612082121664E+02   -0.92579E-04   -0.27667E-04   392   0.733E-02
  55 F= -.61208212E+02 E0= -.61208193E+02  d E =-.994782E-01
 curvature: -18.30 expect dE=-0.694E+01 dE for cont linesearch -0.328E-01
 ZBRENT: increasing intervall
 opt :   0.6225  next Energy=   -61.278437 (dE=-0.170E+00)
 bond charge predicted
       N       E                     dE             d eps       ncg     rms          rms(c)
DAV:   1    -0.637621843040E+02   -0.25541E+01   -0.68995E+02   448   0.202E+02    0.121E+01
DAV:   2    -0.620310095148E+02    0.17312E+01   -0.26208E+01   416   0.344E+01    0.579E+00
DAV:   3    -0.614290466452E+02    0.60196E+00   -0.20281E+00   472   0.967E+00    0.291E+00
DAV:   4    -0.613081384133E+02    0.12091E+00   -0.33537E-01   488   0.406E+00    0.893E-01
DAV:   5    -0.612940711368E+02    0.14067E-01   -0.28133E-02   544   0.117E+00    0.253E-01
DAV:   6    -0.612894005807E+02    0.46706E-02   -0.51857E-03   488   0.465E-01    0.128E-01
DAV:   7    -0.612859021315E+02    0.34984E-02   -0.35150E-03   480   0.317E-01    0.788E-02
DAV:   8    -0.612843365410E+02    0.15656E-02   -0.30275E-03   464   0.251E-01    0.567E-02
DAV:   9    -0.612843799718E+02   -0.43431E-04   -0.47171E-04   384   0.103E-01
  56 F= -.61284380E+02 E0= -.61284380E+02  d E =-.175646E+00
 curvature: -39.21 expect dE=-0.298E+02 dE for cont linesearch -0.114E-01
 ZBRENT: increasing intervall
 opt :   1.3017  next Energy=   -61.246690 (dE=-0.138E+00)
 bond charge predicted
       N       E                     dE             d eps       ncg     rms          rms(c)
DAV:   1    -0.627324697927E+02   -0.14481E+01   -0.32113E+03   384   0.475E+02    0.380E+01
DAV:   2    -0.649662326378E+02   -0.22338E+01   -0.31319E+02   384   0.119E+02    0.165E+01
DAV:   3    -0.614767988712E+02    0.34894E+01   -0.21221E+01   512   0.389E+01    0.102E+01
DAV:   4    -0.610880842112E+02    0.38871E+00   -0.32748E+00   528   0.125E+01    0.373E+00
DAV:   5    -0.611192167467E+02   -0.31133E-01   -0.32935E-01   552   0.402E+00    0.780E-01
DAV:   6    -0.611076877332E+02    0.11529E-01   -0.38123E-02   496   0.138E+00    0.275E-01
DAV:   7    -0.611070403830E+02    0.64735E-03   -0.10418E-02   496   0.669E-01    0.149E-01
DAV:   8    -0.611118300351E+02   -0.47897E-02   -0.50495E-03   424   0.415E-01    0.997E-02
DAV:   9    -0.611173624040E+02   -0.55324E-02   -0.34634E-03   480   0.257E-01    0.394E-02
DAV:  10    -0.611195295674E+02   -0.21672E-02   -0.10896E-03   424   0.127E-01    0.168E-02
DAV:  11    -0.611199304974E+02   -0.40093E-03   -0.20144E-04   360   0.576E-02    0.692E-03
DAV:  12    -0.611199552999E+02   -0.24802E-04   -0.18931E-05   384   0.311E-02
  57 F= -.61119955E+02 E0= -.61119955E+02  d E =-.112214E-01
 curvature: 129.61 expect dE= 0.538E+03 dE for cont linesearch  0.184E+01
 ZBRENT: bracketing found
 ZBRENT: interpolating
 opt :   0.7076  next Energy=   -61.289283 (dE=-0.181E+00)
 bond charge predicted
       N       E                     dE             d eps       ncg     rms          rms(c)
DAV:   1    -0.654490761017E+02   -0.43291E+01   -0.30129E+03   480   0.468E+02    0.270E+01
DAV:   2    -0.710643465854E+02   -0.56153E+01   -0.20315E+02   488   0.891E+01    0.148E+01
DAV:   3    -0.652452333027E+02    0.58191E+01   -0.11847E+01   488   0.226E+01    0.916E+00
DAV:   4    -0.618875055162E+02    0.33577E+01   -0.83965E+00   496   0.155E+01    0.199E+00
DAV:   5    -0.615370396627E+02    0.35047E+00   -0.52402E-01   592   0.455E+00    0.851E-01
DAV:   6    -0.613282447505E+02    0.20879E+00   -0.12431E-01   504   0.196E+00    0.486E-01
DAV:   7    -0.612437871025E+02    0.84458E-01   -0.63666E-02   488   0.118E+00    0.364E-01
DAV:   8    -0.612351966480E+02    0.85905E-02   -0.25047E-02   488   0.732E-01    0.196E-01
DAV:   9    -0.612506703247E+02   -0.15474E-01   -0.94641E-03   456   0.414E-01    0.103E-01
DAV:  10    -0.612636915940E+02   -0.13021E-01   -0.32871E-03   472   0.314E-01    0.401E-02
DAV:  11    -0.612672597098E+02   -0.35681E-02   -0.63063E-04   416   0.136E-01    0.193E-02
DAV:  12    -0.612680643305E+02   -0.80462E-03   -0.14180E-04   344   0.657E-02    0.901E-03
DAV:  13    -0.612682308955E+02   -0.16656E-03   -0.34054E-05   368   0.333E-02    0.347E-03
DAV:  14    -0.612682655363E+02   -0.34641E-04   -0.14234E-05   352   0.195E-02
  58 F= -.61268266E+02 E0= -.61268265E+02  d E =-.159532E+00
 curvature:  -0.35 expect dE=-0.457E+00 dE for cont linesearch -0.159E-03
 trial: gam= 0.00000 g(F)=  0.125E+01 g(S)=  0.712E-01 ort = 0.145E+00 (trialstep = 0.164E+00)
 search vector abs. value=  0.132E+01
 bond charge predicted
       N       E                     dE             d eps       ncg     rms          rms(c)
DAV:   1    -0.614003993080E+02   -0.13217E+00   -0.47390E+00   384   0.150E+01    0.621E-01
DAV:   2    -0.614030775734E+02   -0.26783E-02   -0.13664E-01   512   0.230E+00    0.466E-01
DAV:   3    -0.613995535084E+02    0.35241E-02   -0.12246E-02   488   0.694E-01    0.247E-01
DAV:   4    -0.613991655849E+02    0.38792E-03   -0.22740E-03   504   0.271E-01    0.113E-01
DAV:   5    -0.613990833355E+02    0.82249E-04   -0.40268E-04   496   0.129E-01
  59 F= -.61399083E+02 E0= -.61399083E+02  d E =-.130818E+00
 trial-energy change:   -0.130818  1 .order   -0.132987   -0.216801   -0.049174
 step:   0.2179(harm=  0.2123)  dis= 0.02394  next Energy=   -61.407049 (dE=-0.139E+00)
 bond charge predicted
       N       E                     dE             d eps       ncg     rms          rms(c)
DAV:   1    -0.614072458990E+02   -0.80803E-02   -0.50034E-01   384   0.482E+00    0.196E-01
DAV:   2    -0.614075819419E+02   -0.33604E-03   -0.13706E-02   520   0.726E-01    0.145E-01
DAV:   3    -0.614072255544E+02    0.35639E-03   -0.13289E-03   496   0.226E-01    0.704E-02
DAV:   4    -0.614071992620E+02    0.26292E-04   -0.22038E-04   432   0.865E-02
  60 F= -.61407199E+02 E0= -.61407199E+02  d E =-.138934E+00
 curvature:  -0.10 expect dE=-0.376E-01 dE for cont linesearch -0.321E-05
 trial: gam= 0.26685 g(F)=  0.304E+00 g(S)=  0.550E-01 ort = 0.636E-02 (trialstep = 0.175E+00)
 search vector abs. value=  0.456E+00
 bond charge predicted
       N       E                     dE             d eps       ncg     rms          rms(c)
DAV:   1    -0.614602213480E+02   -0.52996E-01   -0.13795E+00   384   0.833E+00    0.318E-01
DAV:   2    -0.614614170929E+02   -0.11957E-02   -0.28940E-02   544   0.115E+00    0.214E-01
DAV:   3    -0.614606307521E+02    0.78634E-03   -0.33937E-03   528   0.425E-01    0.666E-02
DAV:   4    -0.614605760133E+02    0.54739E-04   -0.53406E-04   512   0.146E-01
  61 F= -.61460576E+02 E0= -.61460576E+02  d E =-.533768E-01
 trial-energy change:   -0.053377  1 .order   -0.053257   -0.063047   -0.043467
 step:   0.5632(harm=  0.5632)  dis= 0.03029  next Energy=   -61.508701 (dE=-0.102E+00)
 bond charge predicted
       N       E                     dE             d eps       ncg     rms          rms(c)
DAV:   1    -0.615067827055E+02   -0.46152E-01   -0.68080E+00   384   0.184E+01    0.722E-01
DAV:   2    -0.615124450110E+02   -0.56623E-02   -0.14229E-01   544   0.262E+00    0.480E-01
DAV:   3    -0.615085411257E+02    0.39039E-02   -0.18014E-02   512   0.979E-01    0.151E-01
DAV:   4    -0.615082242563E+02    0.31687E-03   -0.28303E-03   512   0.334E-01    0.669E-02
DAV:   5    -0.615082022228E+02    0.22034E-04   -0.50315E-04   496   0.122E-01
  62 F= -.61508202E+02 E0= -.61508202E+02  d E =-.101003E+00
 curvature:  -0.36 expect dE=-0.656E-01 dE for cont linesearch -0.105E-03
 trial: gam= 0.55492 g(F)=  0.156E+00 g(S)=  0.279E-01 ort =-0.116E-01 (trialstep = 0.253E+00)
 search vector abs. value=  0.312E+00
 bond charge predicted
       N       E                     dE             d eps       ncg     rms          rms(c)
DAV:   1    -0.615428133583E+02   -0.34589E-01   -0.24210E+00   384   0.105E+01    0.308E-01
DAV:   2    -0.615460187328E+02   -0.32054E-02   -0.47837E-02   560   0.151E+00    0.214E-01
DAV:   3    -0.615453507694E+02    0.66796E-03   -0.28348E-03   512   0.381E-01    0.110E-01
DAV:   4    -0.615452775653E+02    0.73204E-04   -0.61454E-04   496   0.165E-01
  63 F= -.61545278E+02 E0= -.61545277E+02  d E =-.370753E-01
 trial-energy change:   -0.037075  1 .order   -0.036921   -0.044886   -0.028956
 step:   0.7117(harm=  0.7117)  dis= 0.03066  next Energy=   -61.571442 (dE=-0.632E-01)
 bond charge predicted
       N       E                     dE             d eps       ncg     rms          rms(c)
DAV:   1    -0.615636888759E+02   -0.18338E-01   -0.80325E+00   384   0.192E+01    0.569E-01
DAV:   2    -0.615743384225E+02   -0.10650E-01   -0.16074E-01   544   0.278E+00    0.389E-01
DAV:   3    -0.615721797735E+02    0.21586E-02   -0.92764E-03   584   0.695E-01    0.208E-01
DAV:   4    -0.615718798730E+02    0.29990E-03   -0.18250E-03   512   0.282E-01    0.823E-02
DAV:   5    -0.615718863717E+02   -0.64987E-05   -0.19099E-04   392   0.975E-02
  64 F= -.61571886E+02 E0= -.61571886E+02  d E =-.636841E-01
 curvature:  -0.62 expect dE=-0.161E+00 dE for cont linesearch -0.710E-06
 trial: gam= 1.31432 g(F)=  0.229E+00 g(S)=  0.297E-01 ort = 0.595E-03 (trialstep = 0.134E+00)
 search vector abs. value=  0.798E+00
 bond charge predicted
       N       E                     dE             d eps       ncg     rms          rms(c)
DAV:   1    -0.616014824980E+02   -0.29603E-01   -0.17319E+00   384   0.852E+00    0.279E-01
DAV:   2    -0.616033081717E+02   -0.18257E-02   -0.33279E-02   568   0.125E+00    0.182E-01
DAV:   3    -0.616027260026E+02    0.58217E-03   -0.22886E-03   528   0.323E-01    0.740E-02
DAV:   4    -0.616026889269E+02    0.37076E-04   -0.34440E-04   464   0.127E-01
  65 F= -.61602689E+02 E0= -.61602689E+02  d E =-.308026E-01
 ZBRENT: can't locate minimum, use default step
 trial-energy change:   -0.030803  1 .order   -0.030723   -0.034840   -0.026607
 step:   0.5379(harm=  0.5690)  dis= 0.03264  next Energy=   -61.645602 (dE=-0.737E-01)
 bond charge predicted
       N       E                     dE             d eps       ncg     rms          rms(c)
DAV:   1    -0.616369278800E+02   -0.34202E-01   -0.15583E+01   384   0.257E+01    0.865E-01
DAV:   2    -0.616525908124E+02   -0.15663E-01   -0.29742E-01   576   0.376E+00    0.548E-01
DAV:   3    -0.616474367484E+02    0.51541E-02   -0.20217E-02   560   0.972E-01    0.230E-01
DAV:   4    -0.616470061966E+02    0.43055E-03   -0.29156E-03   480   0.356E-01    0.822E-02
DAV:   5    -0.616470712909E+02   -0.65094E-04   -0.38637E-04   480   0.132E-01
  66 F= -.61647071E+02 E0= -.61647071E+02  d E =-.751849E-01
 curvature:  -0.87 expect dE=-0.135E+00 dE for cont linesearch -0.599E-03
 trial: gam= 0.54370 g(F)=  0.138E+00 g(S)=  0.166E-01 ort = 0.234E-01 (trialstep = 0.215E+00)
 search vector abs. value=  0.417E+00
 bond charge predicted
       N       E                     dE             d eps       ncg     rms          rms(c)
DAV:   1    -0.616774353164E+02   -0.30429E-01   -0.24839E+00   384   0.982E+00    0.339E-01
DAV:   2    -0.616790948373E+02   -0.16595E-02   -0.47707E-02   536   0.148E+00    0.212E-01
DAV:   3    -0.616781365247E+02    0.95831E-03   -0.42912E-03   552   0.424E-01    0.980E-02
DAV:   4    -0.616781118007E+02    0.24724E-04   -0.41225E-04   456   0.138E-01
  67 F= -.61678112E+02 E0= -.61678112E+02  d E =-.310405E-01
 trial-energy change:   -0.031041  1 .order   -0.031253   -0.036114   -0.026391
 step:   0.7991(harm=  0.7991)  dis= 0.03843  next Energy=   -61.714141 (dE=-0.671E-01)
 bond charge predicted
       N       E                     dE             d eps       ncg     rms          rms(c)
DAV:   1    -0.617068403055E+02   -0.28704E-01   -0.18281E+01   384   0.268E+01    0.958E-01
DAV:   2    -0.617190797149E+02   -0.12239E-01   -0.35808E-01   552   0.406E+00    0.572E-01
DAV:   3    -0.617125365795E+02    0.65431E-02   -0.30092E-02   576   0.116E+00    0.280E-01
DAV:   4    -0.617121141538E+02    0.42243E-03   -0.29798E-03   504   0.348E-01    0.139E-01
DAV:   5    -0.617121734452E+02   -0.59291E-04   -0.49613E-04   488   0.133E-01
  68 F= -.61712173E+02 E0= -.61712173E+02  d E =-.651022E-01
 curvature:  -0.99 expect dE=-0.243E+00 dE for cont linesearch -0.286E-04
 trial: gam= 1.73031 g(F)=  0.212E+00 g(S)=  0.328E-01 ort =-0.347E-02 (trialstep = 0.934E-01)
 search vector abs. value=  0.148E+01
 bond charge predicted
       N       E                     dE             d eps       ncg     rms          rms(c)
DAV:   1    -0.617316203018E+02   -0.19506E-01   -0.16428E+00   392   0.777E+00    0.279E-01
DAV:   2    -0.617331805878E+02   -0.15603E-02   -0.31889E-02   560   0.113E+00    0.179E-01
DAV:   3    -0.617325662367E+02    0.61435E-03   -0.27620E-03   600   0.354E-01    0.632E-02
DAV:   4    -0.617325891443E+02   -0.22908E-04   -0.25477E-04   400   0.115E-01
  69 F= -.61732589E+02 E0= -.61732589E+02  d E =-.204157E-01
 ZBRENT: can't locate minimum, use default step
 trial-energy change:   -0.020416  1 .order   -0.020205   -0.022327   -0.018082
 step:   0.3737(harm=  0.4914)  dis= 0.02352  next Energy=   -61.770888 (dE=-0.587E-01)
 bond charge predicted
       N       E                     dE             d eps       ncg     rms          rms(c)
DAV:   1    -0.617600510213E+02   -0.27485E-01   -0.14734E+01   384   0.233E+01    0.854E-01
DAV:   2    -0.617736174633E+02   -0.13566E-01   -0.28581E-01   560   0.361E+00    0.544E-01
DAV:   3    -0.617679173843E+02    0.57001E-02   -0.23953E-02   576   0.112E+00    0.200E-01
DAV:   4    -0.617676750252E+02    0.24236E-03   -0.27213E-03   488   0.350E-01    0.777E-02
DAV:   5    -0.617677836609E+02   -0.10864E-03   -0.34327E-04   416   0.127E-01    0.284E-02
DAV:   6    -0.617679171951E+02   -0.13353E-03   -0.81889E-05   368   0.686E-02    0.121E-02
DAV:   7    -0.617680433263E+02   -0.12613E-03   -0.34399E-05   344   0.364E-02    0.551E-03
DAV:   8    -0.617682009384E+02   -0.15761E-03   -0.46339E-05   336   0.276E-02    0.368E-03
DAV:   9    -0.617683314739E+02   -0.13054E-03   -0.46137E-05   336   0.192E-02    0.299E-03
DAV:  10    -0.617683788124E+02   -0.47339E-04   -0.16906E-05   360   0.131E-02
  70 F= -.61768379E+02 E0= -.61768379E+02  d E =-.562054E-01
 curvature:  -1.39 expect dE=-0.242E+00 dE for cont linesearch -0.270E-02
 ZBRENT: extrapolating
 opt :   0.4812  next Energy=   -61.771265 (dE=-0.591E-01)
 bond charge predicted
       N       E                     dE             d eps       ncg     rms          rms(c)
DAV:   1    -0.617697709269E+02   -0.14395E-02   -0.21813E+00   384   0.901E+00    0.322E-01
DAV:   2    -0.617718151062E+02   -0.20442E-02   -0.42482E-02   568   0.130E+00    0.207E-01
DAV:   3    -0.617709098459E+02    0.90526E-03   -0.38123E-03   616   0.413E-01    0.729E-02
DAV:   4    -0.617708518525E+02    0.57993E-04   -0.34023E-04   504   0.130E-01
  71 F= -.61770852E+02 E0= -.61770852E+02  d E =-.586784E-01
 curvature:  -1.48 expect dE=-0.351E+00 dE for cont linesearch -0.627E-04
 trial: gam= 0.72285 g(F)=  0.204E+00 g(S)=  0.324E-01 ort =-0.791E-02 (trialstep = 0.171E+00)
 search vector abs. value=  0.999E+00
 bond charge predicted
       N       E                     dE             d eps       ncg     rms          rms(c)
DAV:   1    -0.618019846711E+02   -0.31075E-01   -0.39037E+00   384   0.124E+01    0.443E-01
DAV:   2    -0.618051915532E+02   -0.32069E-02   -0.78441E-02   544   0.192E+00    0.273E-01
DAV:   3    -0.618035788967E+02    0.16127E-02   -0.75512E-03   544   0.587E-01    0.123E-01
DAV:   4    -0.618035014781E+02    0.77419E-04   -0.78687E-04   464   0.192E-01
  72 F= -.61803501E+02 E0= -.61803501E+02  d E =-.326496E-01
 trial-energy change:   -0.032650  1 .order   -0.032934   -0.039491   -0.026377
 step:   0.5149(harm=  0.5149)  dis= 0.04318  next Energy=   -61.830312 (dE=-0.595E-01)
 bond charge predicted
       N       E                     dE             d eps       ncg     rms          rms(c)
DAV:   1    -0.618184412710E+02   -0.14862E-01   -0.15755E+01   384   0.250E+01    0.922E-01
DAV:   2    -0.618318403296E+02   -0.13399E-01   -0.32752E-01   544   0.399E+00    0.549E-01
DAV:   3    -0.618257743070E+02    0.60660E-02   -0.30357E-02   584   0.121E+00    0.258E-01
DAV:   4    -0.618254560657E+02    0.31824E-03   -0.28862E-03   464   0.356E-01    0.138E-01
DAV:   5    -0.618255266127E+02   -0.70547E-04   -0.64535E-04   464   0.152E-01
  73 F= -.61825527E+02 E0= -.61825527E+02  d E =-.546748E-01
 curvature:  -1.11 expect dE=-0.568E-01 dE for cont linesearch -0.560E-03
 trial: gam= 0.16639 g(F)=  0.475E-01 g(S)=  0.353E-02 ort =-0.224E-01 (trialstep = 0.240E+00)
 search vector abs. value=  0.712E-01
 bond charge predicted
       N       E                     dE             d eps       ncg     rms          rms(c)
DAV:   1    -0.618350572073E+02   -0.96011E-02   -0.46870E-01   384   0.479E+00    0.178E-01
DAV:   2    -0.618352451862E+02   -0.18798E-03   -0.94589E-03   552   0.654E-01    0.115E-01
DAV:   3    -0.618349903890E+02    0.25480E-03   -0.11525E-03   464   0.225E-01    0.356E-02
DAV:   4    -0.618350517516E+02   -0.61363E-04   -0.13523E-04   400   0.801E-02
  74 F= -.61835052E+02 E0= -.61835052E+02  d E =-.952514E-02
 trial-energy change:   -0.009525  1 .order   -0.009314   -0.011339   -0.007289
 step:   0.6713(harm=  0.6713)  dis= 0.01664  next Energy=   -61.841399 (dE=-0.159E-01)
 bond charge predicted
       N       E                     dE             d eps       ncg     rms          rms(c)
DAV:   1    -0.618420507911E+02   -0.70604E-02   -0.15153E+00   384   0.859E+00    0.314E-01
DAV:   2    -0.618426738717E+02   -0.62308E-03   -0.30471E-02   560   0.117E+00    0.203E-01
DAV:   3    -0.618417178960E+02    0.95598E-03   -0.35989E-03   568   0.395E-01    0.634E-02
DAV:   4    -0.618417254696E+02   -0.75736E-05   -0.39476E-04   456   0.132E-01
  75 F= -.61841725E+02 E0= -.61841725E+02  d E =-.161989E-01
 curvature:  -0.51 expect dE=-0.122E-01 dE for cont linesearch -0.340E-05
 trial: gam= 0.36142 g(F)=  0.208E-01 g(S)=  0.335E-02 ort = 0.692E-03 (trialstep = 0.326E+00)
 search vector abs. value=  0.339E-01
 bond charge predicted
       N       E                     dE             d eps       ncg     rms          rms(c)
DAV:   1    -0.618477486591E+02   -0.60308E-02   -0.37391E-01   384   0.430E+00    0.168E-01
DAV:   2    -0.618478002948E+02   -0.51636E-04   -0.80711E-03   520   0.634E-01    0.112E-01
DAV:   3    -0.618474673752E+02    0.33292E-03   -0.13190E-03   504   0.238E-01    0.346E-02
DAV:   4    -0.618474903972E+02   -0.23022E-04   -0.21495E-04   432   0.937E-02
  76 F= -.61847490E+02 E0= -.61847490E+02  d E =-.576493E-02
 trial-energy change:   -0.005765  1 .order   -0.005780   -0.007943   -0.003618
 step:   0.5989(harm=  0.5989)  dis= 0.00652  next Energy=   -61.849019 (dE=-0.729E-02)
 bond charge predicted
       N       E                     dE             d eps       ncg     rms          rms(c)
DAV:   1    -0.618492252289E+02   -0.17579E-02   -0.26306E-01   384   0.361E+00    0.141E-01
DAV:   2    -0.618492993638E+02   -0.74135E-04   -0.59863E-03   512   0.545E-01    0.953E-02
DAV:   3    -0.618490626479E+02    0.23672E-03   -0.93270E-04   496   0.202E-01    0.310E-02
DAV:   4    -0.618490814464E+02   -0.18798E-04   -0.15676E-04   408   0.795E-02
  77 F= -.61849081E+02 E0= -.61849081E+02  d E =-.735598E-02
 curvature:  -0.42 expect dE=-0.115E-01 dE for cont linesearch -0.107E-05
 trial: gam= 1.16190 g(F)=  0.248E-01 g(S)=  0.292E-02 ort = 0.295E-03 (trialstep = 0.174E+00)
 search vector abs. value=  0.742E-01
 bond charge predicted
       N       E                     dE             d eps       ncg     rms          rms(c)
DAV:   1    -0.618535990804E+02   -0.45364E-02   -0.21522E-01   384   0.318E+00    0.131E-01
DAV:   2    -0.618535411489E+02    0.57932E-04   -0.37530E-03   544   0.423E-01    0.809E-02
DAV:   3    -0.618533512838E+02    0.18987E-03   -0.47731E-04   480   0.138E-01    0.214E-02
DAV:   4    -0.618533691117E+02   -0.17828E-04   -0.50012E-05   336   0.484E-02
  78 F= -.61853369E+02 E0= -.61853369E+02  d E =-.428767E-02
 ZBRENT: can't locate minimum, use default step
 trial-energy change:   -0.004288  1 .order   -0.004317   -0.004881   -0.003754
 step:   0.6961(harm=  0.7538)  dis= 0.01277  next Energy=   -61.859652 (dE=-0.106E-01)
 bond charge predicted
       N       E                     dE             d eps       ncg     rms          rms(c)
DAV:   1    -0.618617176399E+02   -0.83664E-02   -0.19440E+00   384   0.954E+00    0.392E-01
DAV:   2    -0.618613401683E+02    0.37747E-03   -0.34448E-02   544   0.127E+00    0.243E-01
DAV:   3    -0.618596095966E+02    0.17306E-02   -0.42760E-03   488   0.416E-01    0.650E-02
DAV:   4    -0.618595517878E+02    0.57809E-04   -0.49523E-04   464   0.145E-01
  79 F= -.61859552E+02 E0= -.61859552E+02  d E =-.104703E-01
 curvature:  -0.99 expect dE=-0.180E-01 dE for cont linesearch -0.180E-03
 trial: gam= 0.56082 g(F)=  0.113E-01 g(S)=  0.689E-02 ort = 0.368E-02 (trialstep = 0.278E+00)
 search vector abs. value=  0.457E-01
 bond charge predicted
       N       E                     dE             d eps       ncg     rms          rms(c)
DAV:   1    -0.618649344357E+02   -0.53248E-02   -0.32170E-01   384   0.377E+00    0.178E-01
DAV:   2    -0.618647531692E+02    0.18127E-03   -0.62566E-03   544   0.538E-01    0.105E-01
DAV:   3    -0.618644397448E+02    0.31342E-03   -0.72085E-04   488   0.173E-01    0.308E-02
DAV:   4    -0.618644671527E+02   -0.27408E-04   -0.75662E-05   344   0.593E-02
  80 F= -.61864467E+02 E0= -.61864467E+02  d E =-.491536E-02
 ZBRENT: can't locate minimum, use default step
 trial-energy change:   -0.004915  1 .order   -0.004972   -0.005654   -0.004290
 step:   1.1138(harm=  1.1539)  dis= 0.01638  next Energy=   -61.871267 (dE=-0.117E-01)
 bond charge predicted
       N       E                     dE             d eps       ncg     rms          rms(c)
DAV:   1    -0.618751570710E+02   -0.10717E-01   -0.28906E+00   384   0.113E+01    0.531E-01
DAV:   2    -0.618738136225E+02    0.13434E-02   -0.56476E-02   536   0.160E+00    0.312E-01
DAV:   3    -0.618711177304E+02    0.26959E-02   -0.62748E-03   496   0.511E-01    0.909E-02
DAV:   4    -0.618709513041E+02    0.16643E-03   -0.69228E-04   472   0.169E-01    0.349E-02
DAV:   5    -0.618710265644E+02   -0.75260E-04   -0.88879E-05   296   0.606E-02
  81 F= -.61871027E+02 E0= -.61871027E+02  d E =-.114748E-01
 curvature:  -1.30 expect dE=-0.305E-01 dE for cont linesearch -0.874E-04
 trial: gam= 1.41247 g(F)=  0.208E-01 g(S)=  0.270E-02 ort = 0.176E-02 (trialstep = 0.170E+00)
 search vector abs. value=  0.120E+00
 bond charge predicted
       N       E                     dE             d eps       ncg     rms          rms(c)
DAV:   1    -0.618753826391E+02   -0.44313E-02   -0.31186E-01   384   0.368E+00    0.186E-01
DAV:   2    -0.618750773116E+02    0.30533E-03   -0.65538E-03   512   0.555E-01    0.109E-01
DAV:   3    -0.618747389541E+02    0.33836E-03   -0.10196E-03   464   0.194E-01    0.342E-02
DAV:   4    -0.618747687878E+02   -0.29834E-04   -0.81033E-05   304   0.624E-02
  82 F= -.61874769E+02 E0= -.61874769E+02  d E =-.374222E-02
 trial-energy change:   -0.003742  1 .order   -0.003676   -0.004426   -0.002925
 step:   0.5016(harm=  0.5016)  dis= 0.01161  next Energy=   -61.877553 (dE=-0.653E-02)
 bond charge predicted
       N       E                     dE             d eps       ncg     rms          rms(c)
DAV:   1    -0.618799119730E+02   -0.51730E-02   -0.11850E+00   384   0.716E+00    0.365E-01
DAV:   2    -0.618787992487E+02    0.11127E-02   -0.24910E-02   512   0.107E+00    0.215E-01
DAV:   3    -0.618774168493E+02    0.13824E-02   -0.37531E-03   472   0.371E-01    0.675E-02
DAV:   4    -0.618773482047E+02    0.68645E-04   -0.31062E-04   424   0.118E-01
  83 F= -.61877348E+02 E0= -.61877348E+02  d E =-.632164E-02
 curvature:  -1.15 expect dE=-0.408E-01 dE for cont linesearch -0.125E-04
 trial: gam= 1.57655 g(F)=  0.312E-01 g(S)=  0.419E-02 ort = 0.114E-02 (trialstep = 0.841E-01)
 search vector abs. value=  0.336E+00
 bond charge predicted
       N       E                     dE             d eps       ncg     rms          rms(c)
DAV:   1    -0.618804726726E+02   -0.30558E-02   -0.21567E-01   384   0.303E+00    0.140E-01
DAV:   2    -0.618803935060E+02    0.79167E-04   -0.42877E-03   576   0.435E-01    0.831E-02
DAV:   3    -0.618802015693E+02    0.19194E-03   -0.41170E-04   432   0.127E-01    0.294E-02
DAV:   4    -0.618802311063E+02   -0.29537E-04   -0.73404E-05   296   0.543E-02
[...]
 trial-energy change:   -0.010695  1 .order   -0.010066   -0.013705   -0.006427
 step:   0.2609(harm=  0.3281)  dis= 0.01363  next Energy=   -61.968636 (dE=-0.124E-01)
 bond charge predicted
       N       E                     dE             d eps       ncg     rms          rms(c)
DAV:   1    -0.619696076302E+02   -0.25542E-02   -0.64358E-01   384   0.492E+00    0.219E-01
DAV:   2    -0.619695126573E+02    0.94973E-04   -0.13068E-02   520   0.740E-01    0.133E-01
DAV:   3    -0.619688410813E+02    0.67158E-03   -0.16651E-03   504   0.268E-01    0.359E-02
DAV:   4    -0.619688348149E+02    0.62663E-05   -0.16926E-04   392   0.899E-02
 100 F= -.61968835E+02 E0= -.61968835E+02  d E =-.125676E-01
 curvature:  -1.30 expect dE=-0.217E-01 dE for cont linesearch -0.334E-03
 trial: gam= 0.06788 g(F)=  0.128E-01 g(S)=  0.390E-02 ort = 0.141E-01 (trialstep = 0.192E+00)
 search vector abs. value=  0.222E-01
 bond charge predicted
       N       E                     dE             d eps       ncg     rms          rms(c)
DAV:   1    -0.619718882791E+02   -0.30472E-02   -0.79325E-02   400   0.198E+00    0.870E-02
DAV:   2    -0.619718656869E+02    0.22592E-04   -0.15664E-03   544   0.278E-01    0.529E-02
DAV:   3    -0.619718356812E+02    0.30006E-04   -0.21932E-04   352   0.980E-02
 101 F= -.61971836E+02 E0= -.61971836E+02  d E =-.300087E-02
 trial-energy change:   -0.003001  1 .order   -0.002882   -0.003382   -0.002381
 step:   0.6473(harm=  0.6473)  dis= 0.01024  next Energy=   -61.974548 (dE=-0.571E-02)
 bond charge predicted
       N       E                     dE             d eps       ncg     rms          rms(c)
DAV:   1    -0.619753911512E+02   -0.35255E-02   -0.44987E-01   384   0.470E+00    0.210E-01
DAV:   2    -0.619751863204E+02    0.20483E-03   -0.90209E-03   544   0.671E-01    0.128E-01
DAV:   3    -0.619747646454E+02    0.42167E-03   -0.13800E-03   520   0.236E-01    0.359E-02
DAV:   4    -0.619747848777E+02   -0.20232E-04   -0.12414E-04   344   0.813E-02
 102 F= -.61974785E+02 E0= -.61974785E+02  d E =-.595006E-02
 curvature:  -0.41 expect dE=-0.446E-02 dE for cont linesearch -0.423E-05
 trial: gam= 0.69339 g(F)=  0.971E-02 g(S)=  0.126E-02 ort = 0.480E-03 (trialstep = 0.281E+00)
 search vector abs. value=  0.223E-01
 bond charge predicted
       N       E                     dE             d eps       ncg     rms          rms(c)
DAV:   1    -0.619771838754E+02   -0.24192E-02   -0.18837E-01   384   0.301E+00    0.145E-01
DAV:   2    -0.619768718157E+02    0.31206E-03   -0.41016E-03   536   0.454E-01    0.881E-02
DAV:   3    -0.619766502030E+02    0.22161E-03   -0.97630E-04   496   0.179E-01    0.326E-02
DAV:   4    -0.619766862910E+02   -0.36088E-04   -0.90543E-05   344   0.615E-02
 103 F= -.61976686E+02 E0= -.61976686E+02  d E =-.190141E-02
 trial-energy change:   -0.001901  1 .order   -0.001895   -0.003178   -0.000613
 step:   0.3482(harm=  0.3482)  dis= 0.00313  next Energy=   -61.976754 (dE=-0.197E-02)
 bond charge predicted
       N       E                     dE             d eps       ncg     rms          rms(c)
DAV:   1    -0.619768438407E+02   -0.19364E-03   -0.10831E-02   480   0.722E-01    0.361E-02
DAV:   2    -0.619768336163E+02    0.10224E-04   -0.23105E-04   448   0.109E-01
 104 F= -.61976834E+02 E0= -.61976834E+02  d E =-.204874E-02
 curvature:  -0.34 expect dE=-0.262E-02 dE for cont linesearch -0.490E-05
 trial: gam= 0.68964 g(F)=  0.514E-02 g(S)=  0.248E-02 ort = 0.564E-03 (trialstep = 0.294E+00)
 search vector abs. value=  0.190E-01
 bond charge predicted
       N       E                     dE             d eps       ncg     rms          rms(c)
DAV:   1    -0.619791276649E+02   -0.22838E-02   -0.15682E-01   400   0.276E+00    0.148E-01
DAV:   2    -0.619787756182E+02    0.35205E-03   -0.36277E-03   504   0.394E-01    0.854E-02
DAV:   3    -0.619785190899E+02    0.25653E-03   -0.88017E-04   512   0.182E-01    0.210E-02
DAV:   4    -0.619785453072E+02   -0.26217E-04   -0.76386E-05   352   0.607E-02
 105 F= -.61978545E+02 E0= -.61978545E+02  d E =-.171169E-02
 trial-energy change:   -0.001712  1 .order   -0.001855   -0.002358   -0.001353
 step:   0.6908(harm=  0.6908)  dis= 0.00564  next Energy=   -61.979599 (dE=-0.277E-02)
 bond charge predicted
       N       E                     dE             d eps       ncg     rms          rms(c)
DAV:   1    -0.619805942610E+02   -0.20752E-02   -0.28656E-01   384   0.373E+00    0.198E-01
DAV:   2    -0.619799566736E+02    0.63759E-03   -0.66332E-03   504   0.537E-01    0.114E-01
DAV:   3    -0.619794976747E+02    0.45900E-03   -0.16843E-03   512   0.249E-01    0.294E-02
DAV:   4    -0.619795244009E+02   -0.26726E-04   -0.15658E-04   336   0.851E-02
 106 F= -.61979524E+02 E0= -.61979524E+02  d E =-.269078E-02
 curvature:  -0.82 expect dE=-0.475E-02 dE for cont linesearch -0.309E-04
 trial: gam= 0.54925 g(F)=  0.418E-02 g(S)=  0.161E-02 ort = 0.847E-03 (trialstep = 0.374E+00)
 search vector abs. value=  0.125E-01
 bond charge predicted
       N       E                     dE             d eps       ncg     rms          rms(c)
DAV:   1    -0.619819264441E+02   -0.24288E-02   -0.15663E-01   400   0.268E+00    0.158E-01
DAV:   2    -0.619814687945E+02    0.45765E-03   -0.41320E-03   488   0.432E-01    0.915E-02
DAV:   3    -0.619811748875E+02    0.29391E-03   -0.10948E-03   512   0.203E-01    0.249E-02
DAV:   4    -0.619812057588E+02   -0.30871E-04   -0.11040E-04   344   0.724E-02
 107 F= -.61981206E+02 E0= -.61981206E+02  d E =-.168136E-02
 trial-energy change:   -0.001681  1 .order   -0.001735   -0.002338   -0.001131
 step:   0.7241(harm=  0.7241)  dis= 0.00445  next Energy=   -61.981789 (dE=-0.226E-02)
 bond charge predicted
       N       E                     dE             d eps       ncg     rms          rms(c)
DAV:   1    -0.619823717658E+02   -0.11969E-02   -0.13819E-01   400   0.253E+00    0.149E-01
DAV:   2    -0.619819657801E+02    0.40599E-03   -0.36805E-03   488   0.407E-01    0.865E-02
DAV:   3    -0.619817082786E+02    0.25750E-03   -0.99502E-04   512   0.191E-01    0.240E-02
DAV:   4    -0.619817379173E+02   -0.29639E-04   -0.99734E-05   336   0.687E-02
 108 F= -.61981738E+02 E0= -.61981738E+02  d E =-.221352E-02
 curvature:  -0.72 expect dE=-0.606E-02 dE for cont linesearch -0.450E-06
 trial: gam= 1.57356 g(F)=  0.768E-02 g(S)=  0.736E-03 ort = 0.881E-04 (trialstep = 0.140E+00)
 search vector abs. value=  0.395E-01
 bond charge predicted
       N       E                     dE             d eps       ncg     rms          rms(c)
DAV:   1    -0.619831571829E+02   -0.14489E-02   -0.69851E-02   424   0.174E+00    0.109E-01
DAV:   2    -0.619828630773E+02    0.29411E-03   -0.17016E-03   448   0.275E-01    0.614E-02
DAV:   3    -0.619827285927E+02    0.13448E-03   -0.60586E-04   512   0.137E-01    0.202E-02
DAV:   4    -0.619827632190E+02   -0.34626E-04   -0.62930E-05   344   0.505E-02
 109 F= -.61982763E+02 E0= -.61982763E+02  d E =-.102530E-02
 trial-energy change:   -0.001025  1 .order   -0.001016   -0.001196   -0.000836
 step:   0.4653(harm=  0.4653)  dis= 0.00410  next Energy=   -61.983727 (dE=-0.199E-02)
 bond charge predicted
       N       E                     dE             d eps       ncg     rms          rms(c)
DAV:   1    -0.619856723980E+02   -0.29438E-02   -0.37700E-01   384   0.403E+00    0.254E-01
DAV:   2    -0.619842113774E+02    0.14610E-02   -0.91283E-03   448   0.639E-01    0.143E-01
DAV:   3    -0.619834091905E+02    0.80219E-03   -0.32606E-03   504   0.322E-01    0.458E-02
DAV:   4    -0.619834347893E+02   -0.25599E-04   -0.33002E-04   416   0.114E-01
 110 F= -.61983435E+02 E0= -.61983435E+02  d E =-.169687E-02
 curvature:  -1.08 expect dE=-0.676E-02 dE for cont linesearch -0.197E-05
 trial: gam= 0.73299 g(F)=  0.438E-02 g(S)=  0.190E-02 ort = 0.269E-03 (trialstep = 0.205E+00)
 search vector abs. value=  0.279E-01
 bond charge predicted
       N       E                     dE             d eps       ncg     rms          rms(c)
DAV:   1    -0.619849782498E+02   -0.15691E-02   -0.10610E-01   384   0.214E+00    0.131E-01
DAV:   2    -0.619846200000E+02    0.35825E-03   -0.25097E-03   472   0.320E-01    0.759E-02
DAV:   3    -0.619843980636E+02    0.22194E-03   -0.72523E-04   512   0.155E-01    0.179E-02
DAV:   4    -0.619844461109E+02   -0.48047E-04   -0.44193E-05   328   0.475E-02
 111 F= -.61984446E+02 E0= -.61984446E+02  d E =-.101132E-02
 trial-energy change:   -0.001011  1 .order   -0.001070   -0.001329   -0.000811
 step:   0.5257(harm=  0.5257)  dis= 0.00451  next Energy=   -61.985139 (dE=-0.170E-02)
 bond charge predicted
       N       E                     dE             d eps       ncg     rms          rms(c)
DAV:   1    -0.619865048084E+02   -0.21067E-02   -0.26220E-01   384   0.337E+00    0.205E-01
DAV:   2    -0.619856650386E+02    0.83977E-03   -0.61767E-03   480   0.501E-01    0.119E-01
DAV:   3    -0.619850842233E+02    0.58082E-03   -0.17695E-03   504   0.244E-01    0.267E-02
DAV:   4    -0.619851260727E+02   -0.41849E-04   -0.10299E-04   336   0.735E-02
 112 F= -.61985126E+02 E0= -.61985126E+02  d E =-.169128E-02
 curvature:  -1.13 expect dE=-0.810E-02 dE for cont linesearch -0.348E-04
 trial: gam= 0.89392 g(F)=  0.542E-02 g(S)=  0.174E-02 ort = 0.927E-03 (trialstep = 0.241E+00)
 search vector abs. value=  0.311E-01
 bond charge predicted
       N       E                     dE             d eps       ncg     rms          rms(c)
DAV:   1    -0.619875764398E+02   -0.24922E-02   -0.16506E-01   384   0.266E+00    0.166E-01
DAV:   2    -0.619869771944E+02    0.59925E-03   -0.38820E-03   432   0.411E-01    0.958E-02
DAV:   3    -0.619866092513E+02    0.36794E-03   -0.11599E-03   504   0.197E-01    0.259E-02
DAV:   4    -0.619866476376E+02   -0.38386E-04   -0.84237E-05   328   0.633E-02
 113 F= -.61986648E+02 E0= -.61986648E+02  d E =-.152156E-02
 trial-energy change:   -0.001522  1 .order   -0.001575   -0.001927   -0.001223
 step:   0.6604(harm=  0.6604)  dis= 0.00573  next Energy=   -61.987762 (dE=-0.264E-02)
 bond charge predicted
       N       E                     dE             d eps       ncg     rms          rms(c)
DAV:   1    -0.619902594923E+02   -0.36502E-02   -0.49830E-01   384   0.463E+00    0.290E-01
DAV:   2    -0.619885429687E+02    0.17165E-02   -0.11745E-02   456   0.716E-01    0.167E-01
DAV:   3    -0.619874226047E+02    0.11204E-02   -0.35163E-03   504   0.347E-01    0.448E-02
DAV:   4    -0.619874502510E+02   -0.27646E-04   -0.27220E-04   408   0.112E-01
 114 F= -.61987450E+02 E0= -.61987450E+02  d E =-.232418E-02
 curvature:  -1.29 expect dE=-0.112E-01 dE for cont linesearch -0.494E-05
 trial: gam= 1.50778 g(F)=  0.777E-02 g(S)=  0.933E-03 ort = 0.346E-03 (trialstep = 0.126E+00)
 search vector abs. value=  0.805E-01
 bond charge predicted
       N       E                     dE             d eps       ncg     rms          rms(c)
DAV:   1    -0.619891275146E+02   -0.17049E-02   -0.10890E-01   400   0.213E+00    0.137E-01
DAV:   2    -0.619886971996E+02    0.43032E-03   -0.23835E-03   496   0.317E-01    0.779E-02
DAV:   3    -0.619884731715E+02    0.22403E-03   -0.69159E-04   504   0.150E-01    0.214E-02
DAV:   4    -0.619885361013E+02   -0.62930E-04   -0.41900E-05   336   0.459E-02
 115 F= -.61988536E+02 E0= -.61988536E+02  d E =-.108585E-02
 ZBRENT: can't locate minimum, use default step
 trial-energy change:   -0.001086  1 .order   -0.001059   -0.001160   -0.000959
 step:   0.5029(harm=  0.7271)  dis= 0.00721  next Energy=   -61.990803 (dE=-0.335E-02)
 bond charge predicted
       N       E                     dE             d eps       ncg     rms          rms(c)
DAV:   1    -0.619958778775E+02   -0.74047E-02   -0.98291E-01   384   0.638E+00    0.411E-01
DAV:   2    -0.619924361429E+02    0.34417E-02   -0.21248E-02   480   0.945E-01    0.232E-01
DAV:   3    -0.619902805293E+02    0.21556E-02   -0.56852E-03   504   0.433E-01    0.611E-02
DAV:   4    -0.619902825251E+02   -0.19958E-05   -0.31578E-04   424   0.124E-01
 116 F= -.61990283E+02 E0= -.61990283E+02  d E =-.283227E-02
 curvature:  -2.73 expect dE=-0.191E-01 dE for cont linesearch -0.975E-03
 trial: gam= 0.12860 g(F)=  0.595E-02 g(S)=  0.106E-02 ort = 0.536E-02 (trialstep = 0.201E+00)
 search vector abs. value=  0.971E-02
 bond charge predicted
       N       E                     dE             d eps       ncg     rms          rms(c)
DAV:   1    -0.619915518013E+02   -0.12713E-02   -0.40620E-02   400   0.142E+00    0.631E-02
DAV:   2    -0.619916168020E+02   -0.65001E-04   -0.11022E-03   560   0.222E-01    0.431E-02
DAV:   3    -0.619916720281E+02   -0.55226E-04   -0.12153E-04   360   0.758E-02
 117 F= -.61991672E+02 E0= -.61991672E+02  d E =-.138950E-02
 trial-energy change:   -0.001390  1 .order   -0.001155   -0.001548   -0.000762
 step:   0.3962(harm=  0.3962)  dis= 0.00349  next Energy=   -61.991807 (dE=-0.152E-02)
 bond charge predicted
       N       E                     dE             d eps       ncg     rms          rms(c)
DAV:   1    -0.619921415473E+02   -0.52475E-03   -0.38500E-02   384   0.137E+00    0.622E-02
DAV:   2    -0.619921809099E+02   -0.39363E-04   -0.10069E-03   544   0.214E-01    0.425E-02
DAV:   3    -0.619921961364E+02   -0.15227E-04   -0.98076E-05   344   0.684E-02
 118 F= -.61992196E+02 E0= -.61992196E+02  d E =-.191361E-02
 curvature:  -0.25 expect dE=-0.113E-02 dE for cont linesearch -0.599E-07
 trial: gam= 0.73714 g(F)=  0.368E-02 g(S)=  0.846E-03 ort = 0.482E-04 (trialstep = 0.236E+00)
 search vector abs. value=  0.988E-02
 bond charge predicted
       N       E                     dE             d eps       ncg     rms          rms(c)
DAV:   1    -0.619932135610E+02   -0.10327E-02   -0.44913E-02   424   0.148E+00    0.846E-02
DAV:   2    -0.619931189978E+02    0.94563E-04   -0.10616E-03   544   0.226E-01    0.508E-02
DAV:   3    -0.619930673667E+02    0.51631E-04   -0.15554E-04   360   0.814E-02
 119 F= -.61993067E+02 E0= -.61993067E+02  d E =-.871230E-03
 trial-energy change:   -0.000871  1 .order   -0.000844   -0.001078   -0.000609
 step:   0.5434(harm=  0.5434)  dis= 0.00427  next Energy=   -61.993436 (dE=-0.124E-02)
 bond charge predicted
       N       E                     dE             d eps       ncg     rms          rms(c)
DAV:   1    -0.619936632105E+02   -0.54421E-03   -0.75696E-02   384   0.192E+00    0.110E-01
DAV:   2    -0.619935050325E+02    0.15818E-03   -0.18142E-03   560   0.295E-01    0.668E-02
DAV:   3    -0.619933802266E+02    0.12481E-03   -0.26103E-04   392   0.103E-01    0.232E-02
DAV:   4    -0.619933928306E+02   -0.12604E-04   -0.44567E-05   352   0.488E-02
 120 F= -.61993393E+02 E0= -.61993393E+02  d E =-.119669E-02
 curvature:  -0.59 expect dE=-0.262E-02 dE for cont linesearch -0.243E-05
 trial: gam= 0.95465 g(F)=  0.383E-02 g(S)=  0.628E-03 ort =-0.202E-03 (trialstep = 0.225E+00)
 search vector abs. value=  0.131E-01
 bond charge predicted
       N       E                     dE             d eps       ncg     rms          rms(c)
DAV:   1    -0.619943006504E+02   -0.92042E-03   -0.57718E-02   384   0.167E+00    0.797E-02
DAV:   2    -0.619942530222E+02    0.47628E-04   -0.12409E-03   528   0.246E-01    0.490E-02
DAV:   3    -0.619941849818E+02    0.68040E-04   -0.11489E-04   328   0.758E-02
 121 F= -.61994185E+02 E0= -.61994185E+02  d E =-.792151E-03
 trial-energy change:   -0.000792  1 .order   -0.000819   -0.000959   -0.000680
 step:   0.7737(harm=  0.7737)  dis= 0.00605  next Energy=   -61.995042 (dE=-0.165E-02)
 bond charge predicted
       N       E                     dE             d eps       ncg     rms          rms(c)
DAV:   1    -0.619953091640E+02   -0.10561E-02   -0.34379E-01   384   0.407E+00    0.198E-01
DAV:   2    -0.619950315021E+02    0.27766E-03   -0.74074E-03   544   0.592E-01    0.122E-01
DAV:   3    -0.619945714243E+02    0.46008E-03   -0.75478E-04   496   0.179E-01    0.492E-02
DAV:   4    -0.619944923565E+02    0.79068E-04   -0.15426E-04   384   0.850E-02
 122 F= -.61994492E+02 E0= -.61994492E+02  d E =-.109953E-02
 curvature:  -1.19 expect dE=-0.109E-01 dE for cont linesearch -0.462E-04
 trial: gam= 2.13480 g(F)=  0.792E-02 g(S)=  0.127E-02 ort =-0.713E-03 (trialstep = 0.666E-01)
 search vector abs. value=  0.657E-01
 bond charge predicted
       N       E                     dE             d eps       ncg     rms          rms(c)
DAV:   1    -0.619950481686E+02   -0.47674E-03   -0.23674E-02   384   0.106E+00    0.550E-02
DAV:   2    -0.619950183918E+02    0.29777E-04   -0.46690E-04   480   0.156E-01
 123 F= -.61995018E+02 E0= -.61995018E+02  d E =-.526035E-03
 ZBRENT: can't locate minimum, use default step
 trial-energy change:   -0.000526  1 .order   -0.000508   -0.000510   -0.000505
 step:   0.2663(harm=  7.4595)  dis= 0.00354  next Energy=   -62.023065 (dE=-0.286E-01)
 bond charge predicted
       N       E                     dE             d eps       ncg     rms          rms(c)
DAV:   1    -0.619966354286E+02   -0.15873E-02   -0.21292E-01   384   0.318E+00    0.175E-01
DAV:   2    -0.619962397830E+02    0.39565E-03   -0.42347E-03   552   0.451E-01    0.104E-01
DAV:   3    -0.619958427296E+02    0.39705E-03   -0.59869E-04   504   0.151E-01    0.346E-02
DAV:   4    -0.619958180921E+02    0.24638E-04   -0.88183E-05   368   0.624E-02
 124 F= -.61995818E+02 E0= -.61995818E+02  d E =-.132574E-02
 curvature:  -1.71 expect dE=-0.103E-01 dE for cont linesearch -0.381E-03
 trial: gam=-0.03927 g(F)=  0.510E-02 g(S)=  0.962E-03 ort = 0.383E-02 (trialstep = 0.107E+00)
 search vector abs. value=  0.586E-02
 bond charge predicted
       N       E                     dE             d eps       ncg     rms          rms(c)
DAV:   1    -0.619964204476E+02   -0.57772E-03   -0.80317E-03   408   0.603E-01    0.285E-02
DAV:   2    -0.619964599901E+02   -0.39543E-04   -0.21630E-04   440   0.991E-02
 125 F= -.61996460E+02 E0= -.61996460E+02  d E =-.641898E-03
 trial-energy change:   -0.000642  1 .order   -0.000539   -0.000629   -0.000448
 step:   0.3705(harm=  0.3705)  dis= 0.00293  next Energy=   -61.996913 (dE=-0.109E-02)
 bond charge predicted
       N       E                     dE             d eps       ncg     rms          rms(c)
DAV:   1    -0.619970003322E+02   -0.57988E-03   -0.47732E-02   384   0.148E+00    0.726E-02
DAV:   2    -0.619970075748E+02   -0.72426E-05   -0.12895E-03   520   0.233E-01    0.490E-02
DAV:   3    -0.619969833576E+02    0.24217E-04   -0.16952E-04   352   0.890E-02
 126 F= -.61996983E+02 E0= -.61996983E+02  d E =-.116527E-02
 curvature:  -0.18 expect dE=-0.519E-03 dE for cont linesearch -0.144E-04
 trial: gam= 0.55480 g(F)=  0.235E-02 g(S)=  0.473E-03 ort =-0.677E-03 (trialstep = 0.159E+00)
 search vector abs. value=  0.388E-02
 bond charge predicted
       N       E                     dE             d eps       ncg     rms          rms(c)
DAV:   1    -0.619973397503E+02   -0.33218E-03   -0.99482E-03   392   0.693E-01    0.340E-02
DAV:   2    -0.619973396545E+02    0.95808E-07   -0.22394E-04   456   0.108E-01
 127 F= -.61997340E+02 E0= -.61997340E+02  d E =-.356297E-03
 trial-energy change:   -0.000356  1 .order   -0.000332   -0.000390   -0.000274
 step:   0.5353(harm=  0.5353)  dis= 0.00311  next Energy=   -61.997639 (dE=-0.655E-03)
 bond charge predicted
       N       E                     dE             d eps       ncg     rms          rms(c)
DAV:   1    -0.619975900861E+02   -0.25034E-03   -0.53761E-02   384   0.162E+00    0.772E-02
DAV:   2    -0.619975496684E+02    0.40418E-04   -0.12143E-03   528   0.244E-01    0.489E-02
DAV:   3    -0.619974844675E+02    0.65201E-04   -0.18751E-04   360   0.905E-02
 128 F= -.61997484E+02 E0= -.61997484E+02  d E =-.501110E-03
 curvature:  -0.42 expect dE=-0.111E-02 dE for cont linesearch -0.552E-04
 trial: gam= 0.00000 g(F)=  0.218E-02 g(S)=  0.430E-03 ort =-0.711E-03 (trialstep = 0.235E+00)
 search vector abs. value=  0.261E-02
 reached required accuracy - stopping structural energy minimisation
 writing wavefunctions
Sun Mar  6 19:47:47 CST 2022
