Sun Mar  6 19:51:02 CST 2022
 running on   48 total cores
 distrk:  each k-point on   48 cores,    1 groups
 distr:  one band on   24 cores,    2 groups
 using from now: INCAR     
 vasp.5.3.5 31Mar14 (build Jan 11 2016 19:50:55) complex                        
  
 POSCAR found type information on POSCAR  B  C  Na
 POSCAR found :  3 types and       9 ions
 scaLAPACK will be used

 ----------------------------------------------------------------------------- 
|                                                                             |
|           W    W    AA    RRRRR   N    N  II  N    N   GGGG   !!!           |
|           W    W   A  A   R    R  NN   N  II  NN   N  G    G  !!!           |
|           W    W  A    A  R    R  N N  N  II  N N  N  G       !!!           |
|           W WW W  AAAAAA  RRRRR   N  N N  II  N  N N  G  GGG   !            |
|           WW  WW  A    A  R   R   N   NN  II  N   NN  G    G                |
|           W    W  A    A  R    R  N    N  II  N    N   GGGG   !!!           |
|                                                                             |
|      For optimal performance we recommend to set                            |
|        NCORE= 4 - approx SQRT( number of cores)                             |
|      NCORE specifies how many cores store one orbital (NPAR=cpu/NCORE).     |
|      This setting can  greatly improve the performance of VASP for DFT.     |
|      The default, NPAR=number of cores might be grossly inefficient         |
|      on modern multi-core architectures or massively parallel machines.     |
|      Do your own testing !!!!                                               |
|      Unfortunately you need to use the default for GW and RPA calculations. |
|      (for HF NCORE is supported but not extensively tested yet)             |
|                                                                             |
 ----------------------------------------------------------------------------- 

 LDA part: xc-table for Pade appr. of Perdew
 POSCAR, INCAR and KPOINTS ok, starting setup
 WARNING: small aliasing (wrap around) errors must be expected
 FFT: planning ...
 WAVECAR not read
 entering main loop
       N       E                     dE             d eps       ncg     rms          rms(c)
DAV:   1     0.266374873257E+03    0.26637E+03   -0.11703E+04   480   0.828E+02
DAV:   2    -0.234168367415E+01   -0.26872E+03   -0.25882E+03   568   0.223E+02
DAV:   3    -0.645787975640E+02   -0.62237E+02   -0.61976E+02   472   0.108E+02
DAV:   4    -0.678425957358E+02   -0.32638E+01   -0.32407E+01   528   0.325E+01
DAV:   5    -0.679384162229E+02   -0.95820E-01   -0.95652E-01   488   0.535E+00    0.131E+01
DAV:   6    -0.613783522257E+02    0.65601E+01   -0.14385E+01   464   0.240E+01    0.688E+00
DAV:   7    -0.596856855755E+02    0.16927E+01   -0.47604E+00   632   0.131E+01    0.323E+00
DAV:   8    -0.593479743594E+02    0.33771E+00   -0.10946E+00   512   0.507E+00    0.138E+00
DAV:   9    -0.592320048662E+02    0.11597E+00   -0.14489E-01   496   0.204E+00    0.505E-01
DAV:  10    -0.591884910315E+02    0.43514E-01   -0.35796E-02   576   0.100E+00    0.289E-01
DAV:  11    -0.591650613153E+02    0.23430E-01   -0.18400E-02   576   0.643E-01    0.179E-01
DAV:  12    -0.591612222151E+02    0.38391E-02   -0.84217E-03   576   0.391E-01    0.116E-01
DAV:  13    -0.591638864669E+02   -0.26643E-02   -0.20007E-03   448   0.221E-01    0.617E-02
DAV:  14    -0.591667943880E+02   -0.29079E-02   -0.17064E-03   376   0.127E-01    0.430E-02
DAV:  15    -0.591709936078E+02   -0.41992E-02   -0.21866E-03   384   0.157E-01    0.313E-02
DAV:  16    -0.591724423825E+02   -0.14488E-02   -0.74410E-04   336   0.695E-02    0.177E-02
DAV:  17    -0.591736119194E+02   -0.11695E-02   -0.44941E-04   304   0.715E-02    0.112E-02
DAV:  18    -0.591740659417E+02   -0.45402E-03   -0.14828E-04   288   0.379E-02    0.715E-03
DAV:  19    -0.591742808053E+02   -0.21486E-03   -0.75519E-05   288   0.317E-02    0.318E-03
DAV:  20    -0.591743713177E+02   -0.90512E-04   -0.27173E-05   288   0.192E-02
   1 F= -.59174371E+02 E0= -.59149527E+02  d E =-.591744E+02
 curvature:   0.00 expect dE= 0.000E+00 dE for cont linesearch  0.000E+00
 trial: gam= 0.00000 g(F)=  0.106E+01 g(S)=  0.298E+00 ort = 0.000E+00 (trialstep = 0.100E+01)
 search vector abs. value=  0.136E+01
 bond charge predicted
       N       E                     dE             d eps       ncg     rms          rms(c)
DAV:   1    -0.588817706664E+02    0.29251E+00   -0.18692E+02   416   0.110E+02    0.375E+00
DAV:   2    -0.591456290171E+02   -0.26386E+00   -0.60571E+00   480   0.166E+01    0.232E+00
DAV:   3    -0.590460034973E+02    0.99626E-01   -0.32400E-01   576   0.369E+00    0.127E+00
DAV:   4    -0.590172883355E+02    0.28715E-01   -0.74725E-02   552   0.182E+00    0.313E-01
DAV:   5    -0.590156385258E+02    0.16498E-02   -0.10585E-02   496   0.628E-01    0.120E-01
DAV:   6    -0.590155376284E+02    0.10090E-03   -0.16163E-03   560   0.240E-01    0.658E-02
DAV:   7    -0.590156263020E+02   -0.88674E-04   -0.37455E-04   416   0.118E-01
   2 F= -.59015626E+02 E0= -.58998955E+02  d E =0.158745E+00
 trial-energy change:    0.158745  1 .order    0.110779   -1.357312    1.578871
 step:   0.4381(harm=  0.4623)  dis= 0.06220  next Energy=   -59.467685 (dE=-0.293E+00)
 bond charge predicted
       N       E                     dE             d eps       ncg     rms          rms(c)
DAV:   1    -0.595063629293E+02   -0.49083E+00   -0.50930E+01   384   0.476E+01    0.224E+00
DAV:   2    -0.595095555601E+02   -0.31926E-02   -0.14424E+00   528   0.781E+00    0.128E+00
DAV:   3    -0.594762086044E+02    0.33347E-01   -0.12231E-01   576   0.248E+00    0.494E-01
DAV:   4    -0.594727493065E+02    0.34593E-02   -0.16406E-02   512   0.819E-01    0.172E-01
DAV:   5    -0.594725500289E+02    0.19928E-03   -0.18695E-03   512   0.289E-01    0.697E-02
DAV:   6    -0.594725551223E+02   -0.50934E-05   -0.19787E-04   384   0.917E-02
   3 F= -.59472555E+02 E0= -.59456611E+02  d E =-.298184E+00
 curvature:  -0.23 expect dE=-0.206E+00 dE for cont linesearch -0.887E-04
 trial: gam= 0.67401 g(F)=  0.842E+00 g(S)=  0.505E-01 ort =-0.228E-01 (trialstep = 0.815E+00)
 search vector abs. value=  0.148E+01
 bond charge predicted
       N       E                     dE             d eps       ncg     rms          rms(c)
DAV:   1    -0.595065762814E+02   -0.34026E-01   -0.15646E+02   480   0.920E+01    0.324E+00
DAV:   2    -0.595520459240E+02   -0.45470E-01   -0.34367E+00   496   0.135E+01    0.177E+00
DAV:   3    -0.594714708439E+02    0.80575E-01   -0.33465E-01   480   0.350E+00    0.783E-01
DAV:   4    -0.594601836898E+02    0.11287E-01   -0.43853E-02   528   0.118E+00    0.354E-01
DAV:   5    -0.594584177360E+02    0.17660E-02   -0.86933E-03   496   0.481E-01    0.121E-01
DAV:   6    -0.594581808770E+02    0.23686E-03   -0.89119E-04   512   0.169E-01    0.513E-02
DAV:   7    -0.594583331873E+02   -0.15231E-03   -0.26162E-04   416   0.858E-02    0.230E-02
DAV:   8    -0.594584976458E+02   -0.16446E-03   -0.77131E-05   384   0.477E-02    0.121E-02
DAV:   9    -0.594587158336E+02   -0.21819E-03   -0.74306E-05   368   0.358E-02    0.736E-03
DAV:  10    -0.594589231834E+02   -0.20735E-03   -0.59978E-05   368   0.289E-02    0.422E-03
DAV:  11    -0.594590153714E+02   -0.92188E-04   -0.13327E-05   368   0.154E-02
   4 F= -.59459015E+02 E0= -.59430320E+02  d E =0.135398E-01
 trial-energy change:    0.013540  1 .order    0.002465   -0.714647    0.719578
 step:   0.3968(harm=  0.4062)  dis= 0.06548  next Energy=   -59.645190 (dE=-0.173E+00)
 bond charge predicted
       N       E                     dE             d eps       ncg     rms          rms(c)
DAV:   1    -0.596605836683E+02   -0.20166E+00   -0.36403E+01   384   0.394E+01    0.167E+00
DAV:   2    -0.596669836414E+02   -0.64000E-02   -0.96464E-01   496   0.634E+00    0.935E-01
DAV:   3    -0.596478979208E+02    0.19086E-01   -0.89054E-02   560   0.193E+00    0.475E-01
DAV:   4    -0.596457822627E+02    0.21157E-02   -0.10259E-02   512   0.585E-01    0.222E-01
DAV:   5    -0.596455258470E+02    0.25642E-03   -0.15750E-03   496   0.234E-01    0.579E-02
DAV:   6    -0.596456570069E+02   -0.13116E-03   -0.34077E-04   448   0.109E-01    0.280E-02
DAV:   7    -0.596458558853E+02   -0.19888E-03   -0.11229E-04   384   0.613E-02    0.127E-02
DAV:   8    -0.596459947847E+02   -0.13890E-03   -0.33942E-05   368   0.375E-02    0.754E-03
DAV:   9    -0.596461617794E+02   -0.16699E-03   -0.49504E-05   352   0.309E-02    0.466E-03
DAV:  10    -0.596462517816E+02   -0.90002E-04   -0.23471E-05   352   0.199E-02
   5 F= -.59646252E+02 E0= -.59623368E+02  d E =-.173697E+00
 curvature:  -0.34 expect dE=-0.601E-01 dE for cont linesearch -0.244E-04
 trial: gam= 0.24759 g(F)=  0.136E+00 g(S)=  0.398E-01 ort =-0.103E-01 (trialstep = 0.732E+00)
 search vector abs. value=  0.261E+00
 bond charge predicted
       N       E                     dE             d eps       ncg     rms          rms(c)
DAV:   1    -0.596788928764E+02   -0.32731E-01   -0.19181E+01   384   0.289E+01    0.104E+00
DAV:   2    -0.596974883099E+02   -0.18595E-01   -0.48062E-01   496   0.447E+00    0.607E-01
DAV:   3    -0.596904271353E+02    0.70612E-02   -0.38135E-02   576   0.133E+00    0.281E-01
DAV:   4    -0.596896275831E+02    0.79955E-03   -0.41884E-03   512   0.401E-01    0.114E-01
DAV:   5    -0.596895896417E+02    0.37941E-04   -0.63739E-04   504   0.147E-01
   6 F= -.59689590E+02 E0= -.59661617E+02  d E =-.433379E-01
 trial-energy change:   -0.043338  1 .order   -0.044152   -0.126666    0.038362
 step:   0.5576(harm=  0.5615)  dis= 0.03721  next Energy=   -59.694162 (dE=-0.479E-01)
 bond charge predicted
       N       E                     dE             d eps       ncg     rms          rms(c)
DAV:   1    -0.596938120083E+02   -0.41844E-02   -0.10651E+00   384   0.666E+00    0.236E-01
DAV:   2    -0.596945395966E+02   -0.72759E-03   -0.23895E-02   480   0.102E+00    0.144E-01
DAV:   3    -0.596942605854E+02    0.27901E-03   -0.24598E-03   560   0.318E-01    0.544E-02
DAV:   4    -0.596942809687E+02   -0.20383E-04   -0.26082E-04   464   0.971E-02
   7 F= -.59694281E+02 E0= -.59667582E+02  d E =-.480292E-01
 curvature:  -0.42 expect dE=-0.650E-01 dE for cont linesearch -0.766E-07
 trial: gam= 0.93799 g(F)=  0.149E+00 g(S)=  0.447E-02 ort = 0.217E-03 (trialstep = 0.474E+00)
 search vector abs. value=  0.384E+00
 bond charge predicted
       N       E                     dE             d eps       ncg     rms          rms(c)
DAV:   1    -0.597015401417E+02   -0.72796E-02   -0.11362E+01   384   0.221E+01    0.750E-01
DAV:   2    -0.597139362364E+02   -0.12396E-01   -0.26685E-01   512   0.334E+00    0.440E-01
DAV:   3    -0.597109963877E+02    0.29398E-02   -0.13018E-02   608   0.804E-01    0.224E-01
DAV:   4    -0.597105092262E+02    0.48716E-03   -0.28827E-03   504   0.316E-01    0.594E-02
DAV:   5    -0.597105275198E+02   -0.18294E-04   -0.36835E-04   480   0.114E-01
   8 F= -.59710528E+02 E0= -.59681731E+02  d E =-.162466E-01
 trial-energy change:   -0.016247  1 .order   -0.016302   -0.072914    0.040309
 step:   0.3054(harm=  0.3054)  dis= 0.02305  next Energy=   -59.717759 (dE=-0.235E-01)
 bond charge predicted
       N       E                     dE             d eps       ncg     rms          rms(c)
DAV:   1    -0.597167281328E+02   -0.62189E-02   -0.14337E+00   384   0.780E+00    0.252E-01
DAV:   2    -0.597182197320E+02   -0.14916E-02   -0.33477E-02   544   0.116E+00    0.160E-01
DAV:   3    -0.597178537950E+02    0.36594E-03   -0.16894E-03   592   0.280E-01    0.716E-02
DAV:   4    -0.597178507926E+02    0.30024E-05   -0.35456E-04   512   0.119E-01
   9 F= -.59717851E+02 E0= -.59689932E+02  d E =-.235698E-01
 curvature:  -0.38 expect dE=-0.222E-01 dE for cont linesearch -0.693E-06
 trial: gam= 0.40832 g(F)=  0.454E-01 g(S)=  0.129E-01 ort = 0.835E-03 (trialstep = 0.440E+00)
 search vector abs. value=  0.123E+00
 bond charge predicted
       N       E                     dE             d eps       ncg     rms          rms(c)
DAV:   1    -0.597352393862E+02   -0.17386E-01   -0.31822E+00   384   0.117E+01    0.445E-01
DAV:   2    -0.597338926386E+02    0.13467E-02   -0.88637E-02   496   0.173E+00    0.277E-01
DAV:   3    -0.597325414538E+02    0.13512E-02   -0.59774E-03   544   0.471E-01    0.167E-01
DAV:   4    -0.597322846973E+02    0.25676E-03   -0.15506E-03   512   0.252E-01    0.611E-02
DAV:   5    -0.597323216846E+02   -0.36987E-04   -0.23071E-04   432   0.934E-02
  10 F= -.59732322E+02 E0= -.59702897E+02  d E =-.144709E-01
 trial-energy change:   -0.014471  1 .order   -0.014747   -0.025827   -0.003666
 step:   0.5133(harm=  0.5133)  dis= 0.01902  next Energy=   -59.732901 (dE=-0.151E-01)
 bond charge predicted
       N       E                     dE             d eps       ncg     rms          rms(c)
DAV:   1    -0.597327320350E+02   -0.44734E-03   -0.87039E-02   384   0.194E+00    0.719E-02
DAV:   2    -0.597326810693E+02    0.50966E-04   -0.22696E-03   512   0.282E-01    0.456E-02
DAV:   3    -0.597326562100E+02    0.24859E-04   -0.13344E-04   320   0.764E-02
  11 F= -.59732656E+02 E0= -.59702965E+02  d E =-.148054E-01
 curvature:  -0.54 expect dE=-0.276E-01 dE for cont linesearch -0.440E-05
 trial: gam= 0.86927 g(F)=  0.379E-01 g(S)=  0.135E-01 ort = 0.100E-02 (trialstep = 0.383E+00)
 search vector abs. value=  0.146E+00
 bond charge predicted
       N       E                     dE             d eps       ncg     rms          rms(c)
DAV:   1    -0.597575195543E+02   -0.24838E-01   -0.23784E+00   384   0.100E+01    0.550E-01
DAV:   2    -0.597507261653E+02    0.67934E-02   -0.96121E-02   496   0.159E+00    0.316E-01
DAV:   3    -0.597485074233E+02    0.22187E-02   -0.66805E-03   512   0.480E-01    0.174E-01
DAV:   4    -0.597479854786E+02    0.52194E-03   -0.26366E-03   496   0.367E-01    0.406E-02
DAV:   5    -0.597479960309E+02   -0.10552E-04   -0.29094E-04   416   0.122E-01
  12 F= -.59747996E+02 E0= -.59718649E+02  d E =-.153398E-01
 trial-energy change:   -0.015340  1 .order   -0.015448   -0.020004   -0.010891
 step:   0.8414(harm=  0.8414)  dis= 0.02820  next Energy=   -59.754611 (dE=-0.220E-01)
 bond charge predicted
       N       E                     dE             d eps       ncg     rms          rms(c)
DAV:   1    -0.597687813800E+02   -0.20796E-01   -0.34133E+00   384   0.120E+01    0.663E-01
DAV:   2    -0.597592707423E+02    0.95106E-02   -0.14070E-01   512   0.192E+00    0.381E-01
DAV:   3    -0.597559032540E+02    0.33675E-02   -0.97255E-03   496   0.579E-01    0.209E-01
DAV:   4    -0.597550957316E+02    0.80752E-03   -0.38624E-03   496   0.441E-01    0.505E-02
DAV:   5    -0.597551206006E+02   -0.24869E-04   -0.43618E-04   480   0.147E-01
  13 F= -.59755121E+02 E0= -.59726075E+02  d E =-.224644E-01
 curvature:  -1.18 expect dE=-0.844E-01 dE for cont linesearch -0.242E-04
 trial: gam= 1.38301 g(F)=  0.585E-01 g(S)=  0.133E-01 ort = 0.173E-02 (trialstep = 0.195E+00)
 search vector abs. value=  0.356E+00
 bond charge predicted
       N       E                     dE             d eps       ncg     rms          rms(c)
DAV:   1    -0.597749177905E+02   -0.19822E-01   -0.13615E+00   384   0.778E+00    0.492E-01
DAV:   2    -0.597691941853E+02    0.57236E-02   -0.59260E-02   512   0.124E+00    0.275E-01
DAV:   3    -0.597674931979E+02    0.17010E-02   -0.49093E-03   480   0.402E-01    0.148E-01
DAV:   4    -0.597670724635E+02    0.42073E-03   -0.17481E-03   496   0.291E-01    0.350E-02
DAV:   5    -0.597671093631E+02   -0.36900E-04   -0.17873E-04   336   0.101E-01
  14 F= -.59767109E+02 E0= -.59738319E+02  d E =-.119888E-01
 trial-energy change:   -0.011989  1 .order   -0.011783   -0.014450   -0.009117
 step:   0.5280(harm=  0.5280)  dis= 0.02231  next Energy=   -59.774696 (dE=-0.196E-01)
 bond charge predicted
       N       E                     dE             d eps       ncg     rms          rms(c)
DAV:   1    -0.597983267130E+02   -0.31254E-01   -0.39901E+00   384   0.133E+01    0.852E-01
DAV:   2    -0.597814283029E+02    0.16898E-01   -0.18138E-01   512   0.213E+00    0.477E-01
DAV:   3    -0.597761854618E+02    0.52428E-02   -0.14522E-02   480   0.699E-01    0.255E-01
DAV:   4    -0.597748476660E+02    0.13378E-02   -0.49571E-03   496   0.498E-01    0.613E-02
DAV:   5    -0.597748804934E+02   -0.32827E-04   -0.62410E-04   512   0.177E-01
  15 F= -.59774880E+02 E0= -.59746730E+02  d E =-.197599E-01
 curvature:  -1.27 expect dE=-0.176E+00 dE for cont linesearch -0.100E-04
 trial: gam= 2.01133 g(F)=  0.125E+00 g(S)=  0.137E-01 ort =-0.168E-02 (trialstep = 0.592E-01)
 search vector abs. value=  0.157E+01
 bond charge predicted
       N       E                     dE             d eps       ncg     rms          rms(c)
DAV:   1    -0.597871350168E+02   -0.12287E-01   -0.52895E-01   384   0.484E+00    0.339E-01
DAV:   2    -0.597837136987E+02    0.34213E-02   -0.24644E-02   464   0.771E-01    0.182E-01
DAV:   3    -0.597829251827E+02    0.78852E-03   -0.22216E-03   464   0.267E-01    0.945E-02
DAV:   4    -0.597827535615E+02    0.17162E-03   -0.78584E-04   512   0.183E-01    0.264E-02
DAV:   5    -0.597828044751E+02   -0.50914E-04   -0.91551E-05   304   0.675E-02
  16 F= -.59782804E+02 E0= -.59754596E+02  d E =-.792398E-02
 ZBRENT: can't locate minimum, use default step
 trial-energy change:   -0.007924  1 .order   -0.007770   -0.008038   -0.007501
 step:   0.2368(harm=  0.8849)  dis= 0.02242  next Energy=   -59.834971 (dE=-0.601E-01)
 bond charge predicted
       N       E                     dE             d eps       ncg     rms          rms(c)
DAV:   1    -0.598421847233E+02   -0.59431E-01   -0.47605E+00   384   0.144E+01    0.104E+00
DAV:   2    -0.598117929371E+02    0.30392E-01   -0.25020E-01   480   0.234E+00    0.564E-01
DAV:   3    -0.598038895390E+02    0.79034E-02   -0.20904E-02   464   0.819E-01    0.294E-01
DAV:   4    -0.598019019674E+02    0.19876E-02   -0.71517E-03   512   0.561E-01    0.827E-02
DAV:   5    -0.598019064515E+02   -0.44841E-05   -0.11161E-03   512   0.215E-01    0.349E-02
DAV:   6    -0.598019575532E+02   -0.51102E-04   -0.13993E-04   336   0.629E-02
  17 F= -.59801958E+02 E0= -.59774022E+02  d E =-.270771E-01
 curvature:  -1.97 expect dE=-0.189E+00 dE for cont linesearch -0.111E-01
 ZBRENT: increasing intervall
 opt :   0.5919  next Energy=   -59.823829 (dE=-0.489E-01)
 bond charge predicted
       N       E                     dE             d eps       ncg     rms          rms(c)
DAV:   1    -0.599909665922E+02   -0.18906E+00   -0.19143E+01   384   0.287E+01    0.215E+00
DAV:   2    -0.598648730759E+02    0.12609E+00   -0.11544E+00   480   0.484E+00    0.114E+00
DAV:   3    -0.598311542310E+02    0.33719E-01   -0.82075E-02   448   0.172E+00    0.611E-01
DAV:   4    -0.598227172558E+02    0.84370E-02   -0.31133E-02   552   0.114E+00    0.193E-01
DAV:   5    -0.598224179463E+02    0.29931E-03   -0.75980E-03   496   0.480E-01    0.889E-02
DAV:   6    -0.598223293860E+02    0.88560E-04   -0.10584E-03   512   0.146E-01    0.317E-02
DAV:   7    -0.598225681295E+02   -0.23874E-03   -0.12791E-04   368   0.660E-02    0.137E-02
DAV:   8    -0.598227896517E+02   -0.22152E-03   -0.64921E-05   352   0.406E-02    0.913E-03
DAV:   9    -0.598230508461E+02   -0.26119E-03   -0.68783E-05   368   0.351E-02    0.560E-03
DAV:  10    -0.598232306913E+02   -0.17985E-03   -0.51875E-05   352   0.274E-02    0.355E-03
DAV:  11    -0.598233037705E+02   -0.73079E-04   -0.16326E-05   360   0.177E-02
  18 F= -.59823304E+02 E0= -.59796277E+02  d E =-.484233E-01
 curvature:  -3.88 expect dE=-0.595E+00 dE for cont linesearch -0.160E-02
 trial: gam= 0.73855 g(F)=  0.132E+00 g(S)=  0.214E-01 ort = 0.255E-01 (trialstep = 0.166E+00)
 search vector abs. value=  0.105E+01
 bond charge predicted
       N       E                     dE             d eps       ncg     rms          rms(c)
DAV:   1    -0.598728105205E+02   -0.49580E-01   -0.27596E+00   384   0.111E+01    0.815E-01
DAV:   2    -0.598532594854E+02    0.19551E-01   -0.13595E-01   496   0.180E+00    0.452E-01
DAV:   3    -0.598485086796E+02    0.47508E-02   -0.12022E-02   424   0.626E-01    0.243E-01
DAV:   4    -0.598472157336E+02    0.12929E-02   -0.41949E-03   512   0.414E-01    0.844E-02
DAV:   5    -0.598471651959E+02    0.50538E-04   -0.52387E-04   504   0.149E-01
  19 F= -.59847165E+02 E0= -.59820946E+02  d E =-.238614E-01
 trial-energy change:   -0.023861  1 .order   -0.024405   -0.028543   -0.020267
 step:   0.5716(harm=  0.5716)  dis= 0.04724  next Energy=   -59.872525 (dE=-0.492E-01)
 bond charge predicted
       N       E                     dE             d eps       ncg     rms          rms(c)
DAV:   1    -0.600284282920E+02   -0.18121E+00   -0.16561E+01   384   0.271E+01    0.206E+00
DAV:   2    -0.599098186939E+02    0.11861E+00   -0.93038E-01   512   0.449E+00    0.113E+00
DAV:   3    -0.598788601025E+02    0.30959E-01   -0.73450E-02   424   0.159E+00    0.624E-01
DAV:   4    -0.598705713399E+02    0.82888E-02   -0.24507E-02   544   0.102E+00    0.226E-01
DAV:   5    -0.598701478922E+02    0.42345E-03   -0.40763E-03   512   0.378E-01    0.763E-02
DAV:   6    -0.598701583990E+02   -0.10507E-04   -0.58976E-04   448   0.130E-01
  20 F= -.59870158E+02 E0= -.59845504E+02  d E =-.468546E-01
 curvature:  -1.74 expect dE=-0.387E+00 dE for cont linesearch -0.171E-04
 trial: gam= 1.71858 g(F)=  0.196E+00 g(S)=  0.264E-01 ort = 0.321E-02 (trialstep = 0.777E-01)
 search vector abs. value=  0.333E+01
 bond charge predicted
       N       E                     dE             d eps       ncg     rms          rms(c)
DAV:   1    -0.599035744470E+02   -0.33427E-01   -0.17488E+00   384   0.901E+00    0.690E-01
DAV:   2    -0.598896996339E+02    0.13875E-01   -0.81003E-02   480   0.142E+00    0.367E-01
DAV:   3    -0.598864861631E+02    0.32135E-02   -0.77636E-03   432   0.529E-01    0.183E-01
DAV:   4    -0.598857075418E+02    0.77862E-03   -0.24612E-03   512   0.314E-01    0.589E-02
DAV:   5    -0.598858210391E+02   -0.11350E-03   -0.31660E-04   448   0.120E-01    0.193E-02
DAV:   6    -0.598859441602E+02   -0.12312E-03   -0.58582E-05   320   0.488E-02    0.100E-02
DAV:   7    -0.598861055033E+02   -0.16134E-03   -0.42085E-05   352   0.339E-02    0.589E-03
DAV:   8    -0.598862674483E+02   -0.16195E-03   -0.37969E-05   352   0.252E-02    0.406E-03
DAV:   9    -0.598863728585E+02   -0.10541E-03   -0.23340E-05   352   0.180E-02    0.272E-03
DAV:  10    -0.598864273907E+02   -0.54532E-04   -0.10412E-05   336   0.128E-02
  21 F= -.59886427E+02 E0= -.59862473E+02  d E =-.162690E-01
 ZBRENT: can't locate minimum, use default step
 trial-energy change:   -0.016269  1 .order   -0.015591   -0.017722   -0.013461
 step:   0.3109(harm=  0.3233)  dis= 0.04763  next Energy=   -59.907008 (dE=-0.368E-01)
 bond charge predicted
       N       E                     dE             d eps       ncg     rms          rms(c)
DAV:   1    -0.600767048857E+02   -0.19033E+00   -0.15836E+01   384   0.268E+01    0.215E+00
DAV:   2    -0.599488069331E+02    0.12790E+00   -0.84640E-01   480   0.432E+00    0.114E+00
DAV:   3    -0.599190191039E+02    0.29788E-01   -0.71704E-02   456   0.163E+00    0.584E-01
DAV:   4    -0.599109807622E+02    0.80383E-02   -0.21592E-02   544   0.950E-01    0.191E-01
DAV:   5    -0.599106494742E+02    0.33129E-03   -0.33158E-03   512   0.357E-01    0.650E-02
DAV:   6    -0.599107241338E+02   -0.74660E-04   -0.42308E-04   400   0.115E-01
  22 F= -.59910724E+02 E0= -.59888934E+02  d E =-.405657E-01
 curvature:  -2.35 expect dE=-0.337E+00 dE for cont linesearch -0.161E-02
 ZBRENT: extrapolating
 opt :   0.3997  next Energy=   -59.912842 (dE=-0.427E-01)
 bond charge predicted
       N       E                     dE             d eps       ncg     rms          rms(c)
DAV:   1    -0.599369196299E+02   -0.26270E-01   -0.23278E+00   384   0.104E+01    0.804E-01
DAV:   2    -0.599178132823E+02    0.19106E-01   -0.10464E-01   480   0.164E+00    0.420E-01
DAV:   3    -0.599136129375E+02    0.42003E-02   -0.10085E-02   464   0.623E-01    0.201E-01
DAV:   4    -0.599126665037E+02    0.94643E-03   -0.26779E-03   496   0.329E-01    0.664E-02
DAV:   5    -0.599127638456E+02   -0.97342E-04   -0.36552E-04   464   0.124E-01
  23 F= -.59912764E+02 E0= -.59891935E+02  d E =-.426054E-01
 curvature:  -3.10 expect dE=-0.632E+00 dE for cont linesearch -0.591E-05
 trial: gam= 0.83887 g(F)=  0.183E+00 g(S)=  0.214E-01 ort =-0.252E-02 (trialstep = 0.142E+00)
 search vector abs. value=  0.254E+01
 bond charge predicted
       N       E                     dE             d eps       ncg     rms          rms(c)
DAV:   1    -0.599942279916E+02   -0.81561E-01   -0.41665E+00   448   0.137E+01    0.119E+00
DAV:   2    -0.599484667788E+02    0.45761E-01   -0.19409E-01   456   0.202E+00    0.590E-01
DAV:   3    -0.599403392420E+02    0.81275E-02   -0.20622E-02   448   0.881E-01    0.275E-01
DAV:   4    -0.599385065999E+02    0.18326E-02   -0.44144E-03   496   0.418E-01    0.888E-02
DAV:   5    -0.599385268574E+02   -0.20258E-04   -0.65482E-04   512   0.158E-01
  24 F= -.59938527E+02 E0= -.59919077E+02  d E =-.257630E-01
 ZBRENT: can't locate minimum, use default step
 trial-energy change:   -0.025763  1 .order   -0.026231   -0.028725   -0.023737
 step:   0.5685(harm=  0.8183)  dis= 0.07841  next Energy=   -59.995464 (dE=-0.827E-01)
 bond charge predicted
       N       E                     dE             d eps       ncg     rms          rms(c)
DAV:   1    -0.604909815243E+02   -0.55247E+00   -0.37724E+01   384   0.407E+01    0.371E+00
DAV:   2    -0.600819570236E+02    0.40902E+00   -0.23874E+00   448   0.699E+00    0.183E+00
DAV:   3    -0.600083139691E+02    0.73643E-01   -0.20728E-01   440   0.296E+00    0.888E-01
DAV:   4    -0.599896690128E+02    0.18645E-01   -0.44848E-02   528   0.134E+00    0.289E-01
DAV:   5    -0.599886644508E+02    0.10046E-02   -0.74771E-03   512   0.505E-01    0.979E-02
DAV:   6    -0.599889404912E+02   -0.27604E-03   -0.12879E-03   512   0.184E-01    0.462E-02
DAV:   7    -0.599894323974E+02   -0.49191E-03   -0.30445E-04   432   0.831E-02    0.217E-02
DAV:   8    -0.599898810102E+02   -0.44861E-03   -0.14593E-04   368   0.542E-02    0.134E-02
DAV:   9    -0.599903967576E+02   -0.51575E-03   -0.32238E-04   416   0.657E-02    0.953E-03
DAV:  10    -0.599905843537E+02   -0.18760E-03   -0.65171E-05   368   0.338E-02    0.456E-03
DAV:  11    -0.599906565985E+02   -0.72245E-04   -0.29925E-05   360   0.201E-02
  25 F= -.59990657E+02 E0= -.59975414E+02  d E =-.778928E-01
 curvature:  -4.45 expect dE=-0.114E+01 dE for cont linesearch -0.833E-02
 ZBRENT: increasing intervall
 opt :   1.4212  next Energy=   -59.965959 (dE=-0.532E-01)
 bond charge predicted
       N       E                     dE             d eps       ncg     rms          rms(c)
DAV:   1    -0.620945218287E+02   -0.21039E+01   -0.15700E+02   384   0.821E+01    0.793E+00
DAV:   2    -0.603030746174E+02    0.17914E+01   -0.99054E+00   448   0.155E+01    0.380E+00
DAV:   3    -0.600210311397E+02    0.28204E+00   -0.95489E-01   448   0.661E+00    0.177E+00
DAV:   4    -0.599622403855E+02    0.58791E-01   -0.13441E-01   512   0.240E+00    0.616E-01
DAV:   5    -0.599574489296E+02    0.47915E-02   -0.18353E-02   488   0.803E-01    0.181E-01
DAV:   6    -0.599579418403E+02   -0.49291E-03   -0.33832E-03   496   0.321E-01    0.849E-02
DAV:   7    -0.599589123314E+02   -0.97049E-03   -0.98338E-04   480   0.155E-01    0.400E-02
DAV:   8    -0.599597724741E+02   -0.86014E-03   -0.46937E-04   416   0.100E-01    0.227E-02
DAV:   9    -0.599605706485E+02   -0.79817E-03   -0.63219E-04   432   0.983E-02    0.169E-02
DAV:  10    -0.599609320437E+02   -0.36140E-03   -0.22885E-04   400   0.641E-02    0.807E-03
DAV:  11    -0.599610229298E+02   -0.90886E-04   -0.45133E-05   384   0.303E-02
  26 F= -.59961023E+02 E0= -.59955469E+02  d E =-.482591E-01
 curvature:  13.18 expect dE= 0.242E+02 dE for cont linesearch  0.120E+00
 ZBRENT: bracketing found
 ZBRENT: interpolating
 opt :   0.8345  next Energy=   -59.999838 (dE=-0.871E-01)
 bond charge predicted
       N       E                     dE             d eps       ncg     rms          rms(c)
DAV:   1    -0.609244877607E+02   -0.96356E+00   -0.80749E+01   448   0.656E+01    0.483E+00
DAV:   2    -0.602358886848E+02    0.68860E+00   -0.20195E+00   432   0.102E+01    0.252E+00
DAV:   3    -0.600177359334E+02    0.21815E+00   -0.10354E+00   480   0.530E+00    0.738E-01
DAV:   4    -0.600047151968E+02    0.13021E-01   -0.62218E-02   464   0.139E+00    0.386E-01
DAV:   5    -0.600000714847E+02    0.46437E-02   -0.11929E-02   528   0.618E-01    0.139E-01
DAV:   6    -0.599993535409E+02    0.71794E-03   -0.21379E-03   480   0.267E-01    0.670E-02
DAV:   7    -0.599990769381E+02    0.27660E-03   -0.72763E-04   496   0.152E-01    0.323E-02
DAV:   8    -0.599991243593E+02   -0.47421E-04   -0.14569E-04   368   0.718E-02
  27 F= -.59999124E+02 E0= -.59987236E+02  d E =-.863605E-01
 curvature:  -1.01 expect dE=-0.526E+00 dE for cont linesearch -0.634E-04
 trial: gam= 2.55674 g(F)=  0.434E+00 g(S)=  0.888E-01 ort =-0.127E-01 (trialstep = 0.418E-01)
 search vector abs. value=  0.171E+02
 bond charge predicted
       N       E                     dE             d eps       ncg     rms          rms(c)
DAV:   1    -0.600527068917E+02   -0.53630E-01   -0.25071E+00   448   0.106E+01    0.880E-01
DAV:   2    -0.600266227002E+02    0.26084E-01   -0.93362E-02   448   0.155E+00    0.426E-01
DAV:   3    -0.600223649738E+02    0.42577E-02   -0.14790E-02   456   0.730E-01    0.166E-01
DAV:   4    -0.600219613883E+02    0.40359E-03   -0.13958E-03   520   0.235E-01    0.633E-02
DAV:   5    -0.600219717151E+02   -0.10327E-04   -0.18927E-04   336   0.865E-02
  28 F= -.60021972E+02 E0= -.60011288E+02  d E =-.228474E-01
 ZBRENT: can't locate minimum, use default step
 trial-energy change:   -0.022847  1 .order   -0.020559   -0.020468   -0.020650
 step:   0.1671(harm=  0.1671)  dis= 0.06081  next Energy=   -60.082450 (dE=-0.833E-01)
 bond charge predicted
       N       E                     dE             d eps       ncg     rms          rms(c)
DAV:   1    -0.603677836900E+02   -0.34582E+00   -0.22481E+01   384   0.314E+01    0.273E+00
DAV:   2    -0.601259581658E+02    0.24183E+00   -0.11598E+00   464   0.532E+00    0.132E+00
DAV:   3    -0.600847390441E+02    0.41219E-01   -0.12672E-01   440   0.228E+00    0.574E-01
DAV:   4    -0.600781194324E+02    0.66196E-02   -0.16873E-02   520   0.841E-01    0.207E-01
DAV:   5    -0.600778351357E+02    0.28430E-03   -0.25531E-03   480   0.300E-01    0.586E-02
DAV:   6    -0.600781243341E+02   -0.28920E-03   -0.48550E-04   432   0.118E-01    0.291E-02
DAV:   7    -0.600785090450E+02   -0.38471E-03   -0.16068E-04   352   0.670E-02    0.150E-02
DAV:   8    -0.600788468078E+02   -0.33776E-03   -0.91492E-05   368   0.474E-02    0.892E-03
DAV:   9    -0.600792175124E+02   -0.37070E-03   -0.16991E-04   384   0.533E-02    0.659E-03
DAV:  10    -0.600793238516E+02   -0.10634E-03   -0.27812E-05   384   0.269E-02    0.346E-03
DAV:  11    -0.600793782541E+02   -0.54403E-04   -0.19088E-05   352   0.172E-02
  29 F= -.60079378E+02 E0= -.60072620E+02  d E =-.802539E-01
 curvature:  -4.39 expect dE=-0.166E+01 dE for cont linesearch -0.410E-01
 ZBRENT: increasing intervall
 opt :   0.4178  next Energy=   -60.155837 (dE=-0.157E+00)
 bond charge predicted
       N       E                     dE             d eps       ncg     rms          rms(c)
DAV:   1    -0.613752802681E+02   -0.12960E+01   -0.92147E+01   384   0.628E+01    0.578E+00
DAV:   2    -0.603464895808E+02    0.10288E+01   -0.52682E+00   480   0.115E+01    0.277E+00
DAV:   3    -0.601789100533E+02    0.16758E+00   -0.59063E-01   488   0.496E+00    0.123E+00
DAV:   4    -0.601523023459E+02    0.26608E-01   -0.68859E-02   504   0.174E+00    0.456E-01
DAV:   5    -0.601501610887E+02    0.21413E-02   -0.87517E-03   480   0.571E-01    0.124E-01
DAV:   6    -0.601505965907E+02   -0.43550E-03   -0.18904E-03   496   0.230E-01    0.574E-02
DAV:   7    -0.601512798275E+02   -0.68324E-03   -0.49293E-04   416   0.112E-01    0.292E-02
DAV:   8    -0.601519117877E+02   -0.63196E-03   -0.26864E-04   400   0.792E-02    0.169E-02
DAV:   9    -0.601525089530E+02   -0.59717E-03   -0.40801E-04   432   0.788E-02    0.122E-02
DAV:  10    -0.601527278998E+02   -0.21895E-03   -0.97256E-05   384   0.438E-02    0.572E-03
DAV:  11    -0.601528044648E+02   -0.76565E-04   -0.40425E-05   376   0.254E-02
  30 F= -.60152804E+02 E0= -.60151386E+02  d E =-.153680E+00
 curvature:  -8.18 expect dE=-0.568E+01 dE for cont linesearch -0.124E-01
 ZBRENT: increasing intervall
 opt :   0.9191  next Energy=   -60.114112 (dE=-0.115E+00)
 bond charge predicted
       N       E                     dE             d eps       ncg     rms          rms(c)
DAV:   1    -0.653051249933E+02   -0.51524E+01   -0.39461E+02   384   0.133E+02    0.132E+01
DAV:   2    -0.609368696293E+02    0.43683E+01   -0.21654E+01   480   0.262E+01    0.602E+00
DAV:   3    -0.602015284500E+02    0.73534E+00   -0.31643E+00   448   0.111E+01    0.287E+00
DAV:   4    -0.601043186977E+02    0.97210E-01   -0.30846E-01   536   0.339E+00    0.107E+00
DAV:   5    -0.600936300922E+02    0.10689E-01   -0.42666E-02   480   0.123E+00    0.290E-01
DAV:   6    -0.600936044442E+02    0.25648E-04   -0.64117E-03   512   0.491E-01    0.125E-01
DAV:   7    -0.600944164709E+02   -0.81203E-03   -0.19373E-03   496   0.239E-01    0.567E-02
DAV:   8    -0.600949337640E+02   -0.51729E-03   -0.72835E-04   416   0.147E-01    0.333E-02
DAV:   9    -0.600954725727E+02   -0.53881E-03   -0.11514E-03   416   0.141E-01    0.266E-02
DAV:  10    -0.600955738970E+02   -0.10132E-03   -0.30809E-04   432   0.883E-02    0.137E-02
DAV:  11    -0.600955662500E+02    0.76470E-05   -0.76333E-05   384   0.424E-02
  31 F= -.60095566E+02 E0= -.60095560E+02  d E =-.964419E-01
 curvature:  25.42 expect dE= 0.829E+02 dE for cont linesearch  0.298E+00
 ZBRENT: bracketing found
 ZBRENT: interpolating
 opt :   0.5506  next Energy=   -60.163515 (dE=-0.164E+00)
 bond charge predicted
       N       E                     dE             d eps       ncg     rms          rms(c)
DAV:   1    -0.626513601461E+02   -0.25558E+01   -0.23696E+02   392   0.118E+02    0.801E+00
DAV:   2    -0.609766758897E+02    0.16747E+01   -0.81812E+00   392   0.211E+01    0.434E+00
DAV:   3    -0.602099079743E+02    0.76677E+00   -0.26811E+00   480   0.895E+00    0.114E+00
DAV:   4    -0.601780239099E+02    0.31884E-01   -0.11676E-01   512   0.224E+00    0.601E-01
DAV:   5    -0.601610923093E+02    0.16932E-01   -0.29891E-02   528   0.100E+00    0.209E-01
DAV:   6    -0.601588289041E+02    0.22634E-02   -0.38673E-03   512   0.428E-01    0.106E-01
DAV:   7    -0.601578594635E+02    0.96944E-03   -0.20185E-03   496   0.229E-01    0.638E-02
DAV:   8    -0.601585170058E+02   -0.65754E-03   -0.85602E-04   464   0.172E-01    0.364E-02
DAV:   9    -0.601594601176E+02   -0.94311E-03   -0.89297E-04   432   0.131E-01    0.240E-02
DAV:  10    -0.601601834251E+02   -0.72331E-03   -0.19925E-04   344   0.919E-02    0.136E-02
DAV:  11    -0.601605624616E+02   -0.37904E-03   -0.83161E-05   344   0.517E-02    0.795E-03
DAV:  12    -0.601607303900E+02   -0.16793E-03   -0.54121E-05   336   0.344E-02    0.509E-03
DAV:  13    -0.601609077667E+02   -0.17738E-03   -0.26315E-05   336   0.211E-02    0.409E-03
DAV:  14    -0.601610400840E+02   -0.13232E-03   -0.11279E-05   368   0.136E-02    0.206E-03
DAV:  15    -0.601611658110E+02   -0.12573E-03   -0.14527E-05   320   0.120E-02    0.183E-03
DAV:  16    -0.601612182301E+02   -0.52419E-04   -0.55014E-06   336   0.819E-03
  32 F= -.60161218E+02 E0= -.60160850E+02  d E =-.162094E+00
 curvature:  -0.91 expect dE=-0.105E+01 dE for cont linesearch -0.399E-04
 trial: gam= 2.06834 g(F)=  0.108E+01 g(S)=  0.665E-01 ort = 0.273E-01 (trialstep = 0.330E-01)
 search vector abs. value=  0.743E+02
 bond charge predicted
       N       E                     dE             d eps       ncg     rms          rms(c)
DAV:   1    -0.602738069502E+02   -0.11264E+00   -0.67420E+00   384   0.174E+01    0.139E+00
DAV:   2    -0.602162058238E+02    0.57601E-01   -0.21616E-01   448   0.275E+00    0.706E-01
DAV:   3    -0.601987865594E+02    0.17419E-01   -0.74120E-02   464   0.153E+00    0.208E-01
DAV:   4    -0.601984952533E+02    0.29131E-03   -0.38166E-03   496   0.404E-01    0.105E-01
DAV:   5    -0.601985378198E+02   -0.42566E-04   -0.59543E-04   480   0.150E-01
  33 F= -.60198538E+02 E0= -.60198385E+02  d E =-.373196E-01
 ZBRENT: can't locate minimum, use default step
 trial-energy change:   -0.037320  1 .order   -0.038186   -0.039642   -0.036731
 step:   0.1319(harm=  0.4491)  dis= 0.10020  next Energy=   -60.431109 (dE=-0.270E+00)
 bond charge predicted
       N       E                     dE             d eps       ncg     rms          rms(c)
DAV:   1    -0.610002720607E+02   -0.80178E+00   -0.61266E+01   384   0.514E+01    0.440E+00
DAV:   2    -0.604481796054E+02    0.55209E+00   -0.21746E+00   488   0.869E+00    0.220E+00
DAV:   3    -0.602986500591E+02    0.14953E+00   -0.60451E-01   456   0.461E+00    0.722E-01
DAV:   4    -0.602940731920E+02    0.45769E-02   -0.36051E-02   512   0.122E+00    0.341E-01
DAV:   5    -0.602934459209E+02    0.62727E-03   -0.50311E-03   520   0.443E-01    0.103E-01
DAV:   6    -0.602941856428E+02   -0.73972E-03   -0.92783E-04   488   0.203E-01    0.461E-02
DAV:   7    -0.602950229743E+02   -0.83733E-03   -0.56736E-04   416   0.119E-01    0.286E-02
DAV:   8    -0.602956339356E+02   -0.61096E-03   -0.28822E-04   384   0.919E-02    0.170E-02
DAV:   9    -0.602961358742E+02   -0.50194E-03   -0.41248E-04   408   0.735E-02    0.124E-02
DAV:  10    -0.602962299043E+02   -0.94030E-04   -0.69114E-05   368   0.410E-02
  34 F= -.60296230E+02 E0= -.60296208E+02  d E =-.135012E+00
 curvature:  -5.82 expect dE=-0.522E+01 dE for cont linesearch -0.525E-01
 ZBRENT: increasing intervall
 opt :   0.3299  next Energy=   -60.399999 (dE=-0.239E+00)
 bond charge predicted
       N       E                     dE             d eps       ncg     rms          rms(c)
DAV:   1    -0.633986694880E+02   -0.31025E+01   -0.25613E+02   384   0.106E+02    0.984E+00
DAV:   2    -0.610318444326E+02    0.23668E+01   -0.10296E+01   432   0.204E+01    0.474E+00
DAV:   3    -0.604385682804E+02    0.59328E+00   -0.23183E+00   472   0.947E+00    0.191E+00
DAV:   4    -0.604010608101E+02    0.37507E-01   -0.18474E-01   512   0.260E+00    0.811E-01
DAV:   5    -0.603932484161E+02    0.78124E-02   -0.25022E-02   512   0.961E-01    0.266E-01
DAV:   6    -0.603931735872E+02    0.74829E-04   -0.36989E-03   464   0.400E-01    0.984E-02
DAV:   7    -0.603937678123E+02   -0.59423E-03   -0.14405E-03   464   0.207E-01    0.541E-02
DAV:   8    -0.603941844833E+02   -0.41667E-03   -0.72770E-04   400   0.141E-01    0.359E-02
DAV:   9    -0.603944805544E+02   -0.29607E-03   -0.10468E-03   376   0.127E-01    0.241E-02
DAV:  10    -0.603944106812E+02    0.69873E-04   -0.18850E-04   384   0.714E-02
  35 F= -.60394411E+02 E0= -.60394410E+02  d E =-.233192E+00
 curvature: -11.50 expect dE=-0.121E+02 dE for cont linesearch -0.554E-03
 trial: gam= 0.31814 g(F)=  0.937E+00 g(S)=  0.111E+00 ort = 0.598E-01 (trialstep = 0.924E-01)
 search vector abs. value=  0.861E+01
 bond charge predicted
       N       E                     dE             d eps       ncg     rms          rms(c)
DAV:   1    -0.605242659370E+02   -0.12979E+00   -0.64538E+00   384   0.177E+01    0.124E+00
DAV:   2    -0.604903499262E+02    0.33916E-01   -0.17687E-01   384   0.274E+00    0.663E-01
DAV:   3    -0.604755256697E+02    0.14824E-01   -0.58659E-02   464   0.151E+00    0.168E-01
DAV:   4    -0.604751759376E+02    0.34973E-03   -0.34772E-03   512   0.418E-01    0.101E-01
DAV:   5    -0.604750320715E+02    0.14387E-03   -0.75964E-04   464   0.161E-01    0.322E-02
DAV:   6    -0.604750948182E+02   -0.62747E-04   -0.11787E-04   328   0.729E-02
  36 F= -.60475095E+02 E0= -.60475094E+02  d E =-.806841E-01
 trial-energy change:   -0.080684  1 .order   -0.081902   -0.098596   -0.065208
 step:   0.2727(harm=  0.2727)  dis= 0.06235  next Energy=   -60.539992 (dE=-0.146E+00)
 bond charge predicted
       N       E                     dE             d eps       ncg     rms          rms(c)
DAV:   1    -0.607246512315E+02   -0.24962E+00   -0.24735E+01   384   0.343E+01    0.249E+00
DAV:   2    -0.605865152852E+02    0.13814E+00   -0.69162E-01   400   0.536E+00    0.131E+00
DAV:   3    -0.605301239335E+02    0.56391E-01   -0.22172E-01   496   0.299E+00    0.346E-01
DAV:   4    -0.605294144859E+02    0.70945E-03   -0.13750E-02   496   0.828E-01    0.203E-01
DAV:   5    -0.605294960577E+02   -0.81572E-04   -0.25626E-03   456   0.298E-01    0.637E-02
DAV:   6    -0.605298781954E+02   -0.38214E-03   -0.41007E-04   384   0.135E-01    0.303E-02
DAV:   7    -0.605303874345E+02   -0.50924E-03   -0.32268E-04   384   0.900E-02    0.203E-02
DAV:   8    -0.605306953452E+02   -0.30791E-03   -0.12403E-04   352   0.608E-02    0.111E-02
DAV:   9    -0.605309510389E+02   -0.25569E-03   -0.27642E-04   392   0.592E-02    0.876E-03
DAV:  10    -0.605309765996E+02   -0.25561E-04   -0.29662E-05   384   0.325E-02
  37 F= -.60530977E+02 E0= -.60530976E+02  d E =-.136566E+00
 curvature:  -1.10 expect dE=-0.277E+00 dE for cont linesearch -0.903E-03
 trial: gam= 0.31940 g(F)=  0.236E+00 g(S)=  0.154E-01 ort =-0.841E-01 (trialstep = 0.128E+00)
 search vector abs. value=  0.108E+01
 bond charge predicted
       N       E                     dE             d eps       ncg     rms          rms(c)
DAV:   1    -0.605648956520E+02   -0.33945E-01   -0.17768E+00   384   0.907E+00    0.596E-01
DAV:   2    -0.605578513732E+02    0.70443E-02   -0.46807E-02   384   0.144E+00    0.326E-01
DAV:   3    -0.605543092120E+02    0.35422E-02   -0.14972E-02   472   0.758E-01    0.952E-02
DAV:   4    -0.605542165688E+02    0.92643E-04   -0.11125E-03   512   0.226E-01    0.578E-02
DAV:   5    -0.605541863960E+02    0.30173E-04   -0.22050E-04   432   0.865E-02
  38 F= -.60554186E+02 E0= -.60554186E+02  d E =-.232098E-01
 trial-energy change:   -0.023210  1 .order   -0.023638   -0.028871   -0.018405
 step:   0.3543(harm=  0.3543)  dis= 0.02277  next Energy=   -60.570799 (dE=-0.398E-01)
 bond charge predicted
       N       E                     dE             d eps       ncg     rms          rms(c)
DAV:   1    -0.606027791037E+02   -0.48563E-01   -0.54828E+00   384   0.159E+01    0.105E+00
DAV:   2    -0.605800280910E+02    0.22751E-01   -0.14483E-01   448   0.251E+00    0.575E-01
DAV:   3    -0.605689165012E+02    0.11112E-01   -0.44338E-02   496   0.132E+00    0.169E-01
DAV:   4    -0.605688374549E+02    0.79046E-04   -0.33807E-03   480   0.393E-01    0.102E-01
DAV:   5    -0.605689550609E+02   -0.11761E-03   -0.64732E-04   464   0.147E-01    0.302E-02
DAV:   6    -0.605690923480E+02   -0.13729E-03   -0.12863E-04   328   0.760E-02    0.146E-02
DAV:   7    -0.605693168951E+02   -0.22455E-03   -0.10684E-04   320   0.544E-02    0.971E-03
DAV:   8    -0.605694350230E+02   -0.11813E-03   -0.36060E-05   384   0.375E-02    0.552E-03
DAV:   9    -0.605695546741E+02   -0.11965E-03   -0.72666E-05   336   0.281E-02    0.455E-03
DAV:  10    -0.605695691379E+02   -0.14464E-04   -0.10050E-05   384   0.168E-02
  39 F= -.60569569E+02 E0= -.60569568E+02  d E =-.385925E-01
 curvature:  -0.85 expect dE=-0.136E+00 dE for cont linesearch -0.144E-04
 trial: gam= 0.45764 g(F)=  0.150E+00 g(S)=  0.103E-01 ort =-0.427E-02 (trialstep = 0.174E+00)
 search vector abs. value=  0.382E+00
 bond charge predicted
       N       E                     dE             d eps       ncg     rms          rms(c)
DAV:   1    -0.605956532560E+02   -0.26099E-01   -0.12541E+00   384   0.755E+00    0.399E-01
DAV:   2    -0.605934184031E+02    0.22349E-02   -0.30572E-02   496   0.115E+00    0.226E-01
DAV:   3    -0.605918373453E+02    0.15811E-02   -0.63795E-03   504   0.498E-01    0.666E-02
DAV:   4    -0.605918011334E+02    0.36212E-04   -0.63877E-04   512   0.155E-01
  40 F= -.60591801E+02 E0= -.60591801E+02  d E =-.222320E-01
 trial-energy change:   -0.022232  1 .order   -0.022483   -0.027531   -0.017435
 step:   0.4734(harm=  0.4734)  dis= 0.01673  next Energy=   -60.607107 (dE=-0.375E-01)
 bond charge predicted
       N       E                     dE             d eps       ncg     rms          rms(c)
DAV:   1    -0.606174964461E+02   -0.25659E-01   -0.37333E+00   384   0.130E+01    0.694E-01
DAV:   2    -0.606103095905E+02    0.71869E-02   -0.90553E-02   512   0.199E+00    0.391E-01
DAV:   3    -0.606055343932E+02    0.47752E-02   -0.18323E-02   496   0.853E-01    0.118E-01
DAV:   4    -0.606055160490E+02    0.18344E-04   -0.17656E-03   496   0.262E-01    0.641E-02
DAV:   5    -0.606055532200E+02   -0.37171E-04   -0.17060E-04   368   0.913E-02
  41 F= -.60605553E+02 E0= -.60605553E+02  d E =-.359841E-01
 curvature:  -0.57 expect dE=-0.116E+00 dE for cont linesearch -0.266E-04
 trial: gam= 1.30715 g(F)=  0.192E+00 g(S)=  0.107E-01 ort =-0.422E-02 (trialstep = 0.106E+00)
 search vector abs. value=  0.844E+00
 bond charge predicted
       N       E                     dE             d eps       ncg     rms          rms(c)
DAV:   1    -0.606266586937E+02   -0.21143E-01   -0.96809E-01   384   0.658E+00    0.315E-01
DAV:   2    -0.606255841128E+02    0.10746E-02   -0.19078E-02   480   0.915E-01    0.179E-01
DAV:   3    -0.606246736467E+02    0.91047E-03   -0.33238E-03   496   0.376E-01    0.532E-02
DAV:   4    -0.606247013297E+02   -0.27683E-04   -0.35832E-04   440   0.124E-01
  42 F= -.60624701E+02 E0= -.60624701E+02  d E =-.191481E-01
 ZBRENT: can't locate minimum, use default step
 trial-energy change:   -0.019148  1 .order   -0.019163   -0.020839   -0.017486
 step:   0.4227(harm=  0.6568)  dis= 0.02911  next Energy=   -60.670310 (dE=-0.648E-01)
 bond charge predicted
       N       E                     dE             d eps       ncg     rms          rms(c)
DAV:   1    -0.606778289857E+02   -0.53155E-01   -0.87504E+00   384   0.197E+01    0.974E-01
DAV:   2    -0.606681861965E+02    0.96428E-02   -0.17579E-01   480   0.281E+00    0.541E-01
DAV:   3    -0.606603350994E+02    0.78511E-02   -0.29912E-02   496   0.113E+00    0.162E-01
DAV:   4    -0.606602355857E+02    0.99514E-04   -0.32846E-03   464   0.373E-01    0.918E-02
DAV:   5    -0.606603268255E+02   -0.91240E-04   -0.58778E-04   448   0.145E-01
  43 F= -.60660327E+02 E0= -.60660326E+02  d E =-.547736E-01
 curvature:  -1.15 expect dE=-0.174E+00 dE for cont linesearch -0.574E-02
 ZBRENT: increasing intervall
 opt :   1.0567  next Energy=   -60.637627 (dE=-0.321E-01)
 bond charge predicted
       N       E                     dE             d eps       ncg     rms          rms(c)
DAV:   1    -0.606991840665E+02   -0.38948E-01   -0.35492E+01   384   0.399E+01    0.204E+00
DAV:   2    -0.606602598240E+02    0.38924E-01   -0.77978E-01   496   0.598E+00    0.110E+00
DAV:   3    -0.606295425759E+02    0.30717E-01   -0.11644E-01   560   0.225E+00    0.346E-01
DAV:   4    -0.606288289596E+02    0.71362E-03   -0.12131E-02   464   0.687E-01    0.186E-01
DAV:   5    -0.606289578152E+02   -0.12886E-03   -0.21560E-03   504   0.273E-01    0.683E-02
DAV:   6    -0.606293225767E+02   -0.36476E-03   -0.42553E-04   384   0.128E-01    0.271E-02
DAV:   7    -0.606296618182E+02   -0.33924E-03   -0.16324E-04   320   0.738E-02    0.166E-02
DAV:   8    -0.606299579080E+02   -0.29609E-03   -0.14198E-04   352   0.585E-02    0.109E-02
DAV:   9    -0.606301624150E+02   -0.20451E-03   -0.17631E-04   384   0.474E-02    0.749E-03
DAV:  10    -0.606301896568E+02   -0.27242E-04   -0.21392E-05   384   0.250E-02
  44 F= -.60630190E+02 E0= -.60630189E+02  d E =-.246364E-01
 curvature:   4.56 expect dE= 0.460E+01 dE for cont linesearch  0.138E+00
 ZBRENT: bracketing found
 ZBRENT: interpolating
 opt :   0.6054  next Energy=   -60.666251 (dE=-0.607E-01)
 bond charge predicted
       N       E                     dE             d eps       ncg     rms          rms(c)
DAV:   1    -0.606976572009E+02   -0.67495E-01   -0.18132E+01   384   0.295E+01    0.138E+00
DAV:   2    -0.606835393686E+02    0.14118E-01   -0.40133E-01   496   0.419E+00    0.797E-01
DAV:   3    -0.606666813130E+02    0.16858E-01   -0.61711E-02   560   0.155E+00    0.245E-01
DAV:   4    -0.606659227190E+02    0.75859E-03   -0.61956E-03   512   0.529E-01    0.137E-01
DAV:   5    -0.606655987890E+02    0.32393E-03   -0.11414E-03   528   0.208E-01    0.496E-02
DAV:   6    -0.606655384366E+02    0.60352E-04   -0.18633E-04   384   0.938E-02
  45 F= -.60665538E+02 E0= -.60665538E+02  d E =-.599852E-01
 curvature:  -0.20 expect dE=-0.533E-01 dE for cont linesearch -0.515E-05
 trial: gam= 1.28577 g(F)=  0.228E+00 g(S)=  0.457E-01 ort =-0.472E-02 (trialstep = 0.105E+00)
 search vector abs. value=  0.166E+01
 bond charge predicted
       N       E                     dE             d eps       ncg     rms          rms(c)
DAV:   1    -0.606942929111E+02   -0.28694E-01   -0.19151E+00   384   0.928E+00    0.453E-01
DAV:   2    -0.606927664816E+02    0.15264E-02   -0.36799E-02   512   0.130E+00    0.250E-01
DAV:   3    -0.606912658630E+02    0.15006E-02   -0.51720E-03   496   0.461E-01    0.739E-02
DAV:   4    -0.606912891791E+02   -0.23316E-04   -0.58920E-04   512   0.157E-01
  46 F= -.60691289E+02 E0= -.60691289E+02  d E =-.257507E-01
 trial-energy change:   -0.025751  1 .order   -0.025344   -0.027992   -0.022697
 step:   0.2989(harm=  0.5539)  dis= 0.03467  next Energy=   -60.714898 (dE=-0.494E-01)
 bond charge predicted
       N       E                     dE             d eps       ncg     rms          rms(c)
DAV:   1    -0.607354431376E+02   -0.44177E-01   -0.65941E+00   384   0.173E+01    0.845E-01
DAV:   2    -0.607287853465E+02    0.66578E-02   -0.13117E-01   504   0.242E+00    0.463E-01
DAV:   3    -0.607225214303E+02    0.62639E-02   -0.18109E-02   512   0.860E-01    0.145E-01
DAV:   4    -0.607224876578E+02    0.33772E-04   -0.21071E-03   512   0.295E-01    0.793E-02
DAV:   5    -0.607226019352E+02   -0.11428E-03   -0.31532E-04   432   0.111E-01    0.231E-02
DAV:   6    -0.607227188877E+02   -0.11695E-03   -0.60133E-05   368   0.572E-02    0.105E-02
DAV:   7    -0.607228609635E+02   -0.14208E-03   -0.40948E-05   320   0.366E-02    0.597E-03
DAV:   8    -0.607229616825E+02   -0.10072E-03   -0.21975E-05   352   0.249E-02    0.355E-03
DAV:   9    -0.607230450492E+02   -0.83367E-04   -0.31233E-05   360   0.201E-02
  47 F= -.60723045E+02 E0= -.60723044E+02  d E =-.575066E-01
 curvature:  -1.16 expect dE=-0.174E+00 dE for cont linesearch -0.874E-02
 ZBRENT: increasing intervall
 opt :   0.6872  next Energy=   -60.725556 (dE=-0.600E-01)
 bond charge predicted
       N       E                     dE             d eps       ncg     rms          rms(c)
DAV:   1    -0.607718950700E+02   -0.48933E-01   -0.26582E+01   384   0.348E+01    0.173E+00
DAV:   2    -0.607484601132E+02    0.23435E-01   -0.56872E-01   504   0.502E+00    0.926E-01
DAV:   3    -0.607249130853E+02    0.23547E-01   -0.67111E-02   544   0.170E+00    0.323E-01
DAV:   4    -0.607242274734E+02    0.68561E-03   -0.79726E-03   512   0.557E-01    0.163E-01
DAV:   5    -0.607243845871E+02   -0.15711E-03   -0.10217E-03   480   0.200E-01    0.474E-02
DAV:   6    -0.607246341293E+02   -0.24954E-03   -0.17435E-04   320   0.877E-02    0.200E-02
DAV:   7    -0.607249370417E+02   -0.30291E-03   -0.12940E-04   320   0.615E-02    0.127E-02
DAV:   8    -0.607251442629E+02   -0.20722E-03   -0.66180E-05   336   0.401E-02    0.716E-03
DAV:   9    -0.607253093062E+02   -0.16504E-03   -0.10924E-04   368   0.365E-02    0.579E-03
DAV:  10    -0.607253402695E+02   -0.30963E-04   -0.15459E-05   384   0.194E-02
  48 F= -.60725340E+02 E0= -.60725334E+02  d E =-.598018E-01
 curvature:  -0.33 expect dE=-0.203E+00 dE for cont linesearch -0.193E-02
 ZBRENT: bracketing found
 ZBRENT: interpolating
 opt :   0.5058  next Energy=   -60.734203 (dE=-0.687E-01)
 bond charge predicted
       N       E                     dE             d eps       ncg     rms          rms(c)
DAV:   1    -0.607454170636E+02   -0.20108E-01   -0.57939E+00   384   0.163E+01    0.777E-01
DAV:   2    -0.607398196116E+02    0.55975E-02   -0.10946E-01   512   0.224E+00    0.435E-01
DAV:   3    -0.607341256109E+02    0.56940E-02   -0.16731E-02   512   0.836E-01    0.123E-01
DAV:   4    -0.607340073173E+02    0.11829E-03   -0.18938E-03   512   0.301E-01    0.715E-02
DAV:   5    -0.607339088689E+02    0.98448E-04   -0.31155E-04   432   0.114E-01
  49 F= -.60733909E+02 E0= -.60733906E+02  d E =-.683704E-01
 curvature:  -1.54 expect dE=-0.475E+00 dE for cont linesearch -0.269E-04
 trial: gam= 1.15697 g(F)=  0.299E+00 g(S)=  0.101E-01 ort =-0.539E-02 (trialstep = 0.122E+00)
 search vector abs. value=  0.252E+01
 bond charge predicted
       N       E                     dE             d eps       ncg     rms          rms(c)
DAV:   1    -0.607718814647E+02   -0.37874E-01   -0.38149E+00   384   0.133E+01    0.649E-01
DAV:   2    -0.607689247290E+02    0.29567E-02   -0.74071E-02   496   0.184E+00    0.357E-01
DAV:   3    -0.607656581008E+02    0.32666E-02   -0.10179E-02   504   0.658E-01    0.110E-01
DAV:   4    -0.607655707894E+02    0.87311E-04   -0.14503E-03   504   0.240E-01    0.600E-02
DAV:   5    -0.607655401205E+02    0.30669E-04   -0.17627E-04   376   0.862E-02
  50 F= -.60765540E+02 E0= -.60765537E+02  d E =-.316313E-01
 trial-energy change:   -0.031631  1 .order   -0.031337   -0.036941   -0.025732
 step:   0.4017(harm=  0.4017)  dis= 0.06134  next Energy=   -60.794782 (dE=-0.609E-01)
 bond charge predicted
       N       E                     dE             d eps       ncg     rms          rms(c)
DAV:   1    -0.608265534325E+02   -0.60983E-01   -0.20201E+01   384   0.307E+01    0.153E+00
DAV:   2    -0.608084197842E+02    0.18134E-01   -0.41767E-01   496   0.433E+00    0.822E-01
DAV:   3    -0.607901634716E+02    0.18256E-01   -0.49678E-02   496   0.148E+00    0.296E-01
DAV:   4    -0.607895957136E+02    0.56776E-03   -0.75798E-03   512   0.544E-01    0.147E-01
DAV:   5    -0.607897967175E+02   -0.20100E-03   -0.91433E-04   456   0.188E-01    0.487E-02
DAV:   6    -0.607900693890E+02   -0.27267E-03   -0.17155E-04   328   0.855E-02    0.175E-02
DAV:   7    -0.607903471555E+02   -0.27777E-03   -0.10812E-04   320   0.570E-02    0.118E-02
DAV:   8    -0.607905563452E+02   -0.20919E-03   -0.67943E-05   344   0.397E-02    0.642E-03
DAV:   9    -0.607906987786E+02   -0.14243E-03   -0.82447E-05   352   0.328E-02    0.515E-03
DAV:  10    -0.607907335521E+02   -0.34774E-04   -0.19783E-05   368   0.207E-02
  51 F= -.60790734E+02 E0= -.60790731E+02  d E =-.568247E-01
 curvature:  -1.67 expect dE=-0.301E+00 dE for cont linesearch -0.571E-03
 trial: gam= 0.66394 g(F)=  0.137E+00 g(S)=  0.441E-01 ort =-0.293E-01 (trialstep = 0.178E+00)
 search vector abs. value=  0.125E+01
 bond charge predicted
       N       E                     dE             d eps       ncg     rms          rms(c)
DAV:   1    -0.608234364552E+02   -0.32738E-01   -0.38962E+00   384   0.137E+01    0.661E-01
DAV:   2    -0.608198741869E+02    0.35623E-02   -0.67592E-02   464   0.176E+00    0.355E-01
DAV:   3    -0.608165697044E+02    0.33045E-02   -0.71672E-03   552   0.561E-01    0.112E-01
DAV:   4    -0.608164515875E+02    0.11812E-03   -0.97768E-04   512   0.184E-01    0.571E-02
DAV:   5    -0.608164721482E+02   -0.20561E-04   -0.85250E-05   360   0.644E-02
  52 F= -.60816472E+02 E0= -.60816470E+02  d E =-.257386E-01
 ZBRENT: can't locate minimum, use default step
 trial-energy change:   -0.025739  1 .order   -0.026293   -0.028664   -0.023922
 step:   0.7114(harm=  1.0751)  dis= 0.07971  next Energy=   -60.877368 (dE=-0.866E-01)
 bond charge predicted
       N       E                     dE             d eps       ncg     rms          rms(c)
DAV:   1    -0.609238110026E+02   -0.10736E+00   -0.35221E+01   384   0.411E+01    0.212E+00
DAV:   2    -0.608904114997E+02    0.33400E-01   -0.67105E-01   472   0.555E+00    0.108E+00
DAV:   3    -0.608621005237E+02    0.28311E-01   -0.58789E-02   576   0.169E+00    0.415E-01
DAV:   4    -0.608605212839E+02    0.15792E-02   -0.95094E-03   520   0.580E-01    0.182E-01
DAV:   5    -0.608608261438E+02   -0.30486E-03   -0.94122E-04   480   0.201E-01    0.520E-02
DAV:   6    -0.608611060598E+02   -0.27992E-03   -0.26070E-04   400   0.903E-02    0.216E-02
DAV:   7    -0.608613744457E+02   -0.26839E-03   -0.85598E-05   320   0.515E-02    0.157E-02
DAV:   8    -0.608617324207E+02   -0.35798E-03   -0.21033E-04   384   0.546E-02    0.100E-02
DAV:   9    -0.608618494552E+02   -0.11703E-03   -0.67860E-05   368   0.356E-02    0.700E-03
DAV:  10    -0.608618888963E+02   -0.39441E-04   -0.25271E-05   368   0.214E-02
  53 F= -.60861889E+02 E0= -.60861887E+02  d E =-.711553E-01
 curvature:  -3.49 expect dE=-0.887E+00 dE for cont linesearch -0.455E-02
 trial: gam= 0.90879 g(F)=  0.227E+00 g(S)=  0.277E-01 ort = 0.404E-01 (trialstep = 0.261E+00)
 search vector abs. value=  0.136E+01
 bond charge predicted
       N       E                     dE             d eps       ncg     rms          rms(c)
DAV:   1    -0.609200852602E+02   -0.58236E-01   -0.93039E+00   384   0.214E+01    0.104E+00
DAV:   2    -0.609134560504E+02    0.66292E-02   -0.19128E-01   480   0.286E+00    0.575E-01
DAV:   3    -0.609048575178E+02    0.85985E-02   -0.18300E-02   512   0.904E-01    0.217E-01
DAV:   4    -0.609043719625E+02    0.48556E-03   -0.32196E-03   512   0.340E-01    0.984E-02
DAV:   5    -0.609044170713E+02   -0.45109E-04   -0.26788E-04   392   0.114E-01
  54 F= -.60904417E+02 E0= -.60904413E+02  d E =-.425282E-01
 trial-energy change:   -0.042528  1 .order   -0.043709   -0.076170   -0.011248
 step:   0.3136(harm=  0.3068)  dis= 0.03637  next Energy=   -60.905529 (dE=-0.436E-01)
 bond charge predicted
       N       E                     dE             d eps       ncg     rms          rms(c)
DAV:   1    -0.609058482388E+02   -0.14763E-02   -0.36827E-01   384   0.426E+00    0.199E-01
DAV:   2    -0.609054751868E+02    0.37305E-03   -0.73837E-03   528   0.563E-01    0.113E-01
DAV:   3    -0.609051155555E+02    0.35963E-03   -0.82796E-04   512   0.184E-01    0.384E-02
DAV:   4    -0.609051498232E+02   -0.34268E-04   -0.11940E-04   320   0.692E-02
  55 F= -.60905150E+02 E0= -.60905145E+02  d E =-.432609E-01
 curvature:  -0.70 expect dE=-0.119E+00 dE for cont linesearch -0.825E-04
 trial: gam= 0.97001 g(F)=  0.149E+00 g(S)=  0.204E-01 ort =-0.127E-01 (trialstep = 0.260E+00)
 search vector abs. value=  0.143E+01
 bond charge predicted
       N       E                     dE             d eps       ncg     rms          rms(c)
DAV:   1    -0.609559983148E+02   -0.50883E-01   -0.87194E+00   384   0.206E+01    0.105E+00
DAV:   2    -0.609454526082E+02    0.10546E-01   -0.15287E-01   464   0.255E+00    0.562E-01
DAV:   3    -0.609374812893E+02    0.79713E-02   -0.15156E-02   512   0.795E-01    0.230E-01
DAV:   4    -0.609369478211E+02    0.53347E-03   -0.27818E-03   512   0.313E-01    0.992E-02
DAV:   5    -0.609370429174E+02   -0.95096E-04   -0.30874E-04   360   0.117E-01
  56 F= -.60937043E+02 E0= -.60937036E+02  d E =-.318931E-01
 trial-energy change:   -0.031893  1 .order   -0.033419   -0.040845   -0.025992
 step:   0.7138(harm=  0.7138)  dis= 0.08851  next Energy=   -60.961311 (dE=-0.562E-01)
 bond charge predicted
       N       E                     dE             d eps       ncg     rms          rms(c)
DAV:   1    -0.610109760099E+02   -0.74028E-01   -0.26521E+01   384   0.359E+01    0.192E+00
DAV:   2    -0.609791259191E+02    0.31850E-01   -0.49940E-01   464   0.456E+00    0.993E-01
DAV:   3    -0.609564169318E+02    0.22709E-01   -0.41563E-02   512   0.134E+00    0.481E-01
DAV:   4    -0.609538458209E+02    0.25711E-02   -0.92520E-03   528   0.568E-01    0.178E-01
DAV:   5    -0.609539572696E+02   -0.11145E-03   -0.10610E-03   488   0.206E-01    0.519E-02
DAV:   6    -0.609541758977E+02   -0.21863E-03   -0.19076E-04   336   0.829E-02    0.242E-02
DAV:   7    -0.609544638780E+02   -0.28798E-03   -0.14546E-04   320   0.618E-02    0.181E-02
DAV:   8    -0.609547421799E+02   -0.27830E-03   -0.15254E-04   352   0.544E-02    0.108E-02
DAV:   9    -0.609548717626E+02   -0.12958E-03   -0.85413E-05   344   0.375E-02    0.800E-03
DAV:  10    -0.609549275550E+02   -0.55792E-04   -0.31957E-05   360   0.228E-02
  57 F= -.60954928E+02 E0= -.60954918E+02  d E =-.497777E-01
 curvature:  -3.23 expect dE=-0.947E+00 dE for cont linesearch -0.641E-03
 trial: gam= 1.13804 g(F)=  0.281E+00 g(S)=  0.121E-01 ort =-0.168E-01 (trialstep = 0.238E+00)
 search vector abs. value=  0.210E+01
 bond charge predicted
       N       E                     dE             d eps       ncg     rms          rms(c)
DAV:   1    -0.610159233347E+02   -0.61052E-01   -0.10803E+01   384   0.227E+01    0.115E+00
DAV:   2    -0.610045177125E+02    0.11406E-01   -0.20261E-01   528   0.290E+00    0.628E-01
DAV:   3    -0.609939777645E+02    0.10540E-01   -0.21299E-02   496   0.940E-01    0.217E-01
DAV:   4    -0.609935548570E+02    0.42291E-03   -0.41332E-03   528   0.375E-01    0.105E-01
DAV:   5    -0.609935997715E+02   -0.44914E-04   -0.31893E-04   416   0.120E-01
  58 F= -.60993600E+02 E0= -.60993595E+02  d E =-.386722E-01
 trial-energy change:   -0.038672  1 .order   -0.040165   -0.065124   -0.015207
 step:   0.3347(harm=  0.3102)  dis= 0.04989  next Energy=   -60.996598 (dE=-0.417E-01)
 bond charge predicted
       N       E                     dE             d eps       ncg     rms          rms(c)
DAV:   1    -0.609989724584E+02   -0.54176E-02   -0.17983E+00   384   0.926E+00    0.458E-01
DAV:   2    -0.609966055967E+02    0.23669E-02   -0.32527E-02   536   0.117E+00    0.253E-01
DAV:   3    -0.609946868256E+02    0.19188E-02   -0.39858E-03   512   0.401E-01    0.773E-02
DAV:   4    -0.609947176524E+02   -0.30827E-04   -0.69405E-04   488   0.154E-01
  59 F= -.60994718E+02 E0= -.60994713E+02  d E =-.397901E-01
 curvature:  -1.05 expect dE=-0.203E+00 dE for cont linesearch -0.415E-03
 trial: gam= 0.69386 g(F)=  0.178E+00 g(S)=  0.144E-01 ort =-0.288E-01 (trialstep = 0.257E+00)
 search vector abs. value=  0.116E+01
 bond charge predicted
       N       E                     dE             d eps       ncg     rms          rms(c)
DAV:   1    -0.610340334552E+02   -0.39347E-01   -0.70756E+00   384   0.184E+01    0.909E-01
DAV:   2    -0.610253306094E+02    0.87028E-02   -0.13158E-01   496   0.245E+00    0.513E-01
DAV:   3    -0.610179672653E+02    0.73633E-02   -0.21455E-02   512   0.950E-01    0.157E-01
DAV:   4    -0.610179615197E+02    0.57456E-05   -0.35823E-03   480   0.367E-01    0.966E-02
DAV:   5    -0.610180594263E+02   -0.97907E-04   -0.58165E-04   392   0.142E-01
  60 F= -.61018059E+02 E0= -.61018055E+02  d E =-.233418E-01
 trial-energy change:   -0.023342  1 .order   -0.024613   -0.044318   -0.004908
 step:   0.2985(harm=  0.2892)  dis= 0.03118  next Energy=   -61.018448 (dE=-0.237E-01)
 bond charge predicted
       N       E                     dE             d eps       ncg     rms          rms(c)
DAV:   1    -0.610187530726E+02   -0.79155E-03   -0.18241E-01   384   0.297E+00    0.142E-01
DAV:   2    -0.610184754552E+02    0.27762E-03   -0.33438E-03   512   0.393E-01    0.818E-02
DAV:   3    -0.610183110681E+02    0.16439E-03   -0.62747E-04   440   0.158E-01    0.260E-02
DAV:   4    -0.610183645206E+02   -0.53453E-04   -0.92415E-05   336   0.633E-02
  61 F= -.61018365E+02 E0= -.61018360E+02  d E =-.236469E-01
 curvature:  -0.89 expect dE=-0.545E-01 dE for cont linesearch -0.972E-04
 trial: gam= 0.23456 g(F)=  0.573E-01 g(S)=  0.370E-02 ort =-0.112E-01 (trialstep = 0.265E+00)
 search vector abs. value=  0.120E+00
 bond charge predicted
       N       E                     dE             d eps       ncg     rms          rms(c)
DAV:   1    -0.610298711153E+02   -0.11560E-01   -0.83642E-01   384   0.641E+00    0.293E-01
DAV:   2    -0.610294606137E+02    0.41050E-03   -0.17152E-02   528   0.872E-01    0.173E-01
DAV:   3    -0.610286576294E+02    0.80298E-03   -0.21907E-03   496   0.318E-01    0.540E-02
DAV:   4    -0.610286534894E+02    0.41400E-05   -0.30608E-04   448   0.109E-01
  62 F= -.61028653E+02 E0= -.61028649E+02  d E =-.102890E-01
 trial-energy change:   -0.010289  1 .order   -0.010406   -0.015482   -0.005330
 step:   0.4048(harm=  0.4048)  dis= 0.00878  next Energy=   -61.030170 (dE=-0.118E-01)
 bond charge predicted
       N       E                     dE             d eps       ncg     rms          rms(c)
DAV:   1    -0.610303570030E+02   -0.16994E-02   -0.23110E-01   384   0.338E+00    0.156E-01
DAV:   2    -0.610302280092E+02    0.12899E-03   -0.48316E-03   528   0.465E-01    0.937E-02
DAV:   3    -0.610300038953E+02    0.22411E-03   -0.65080E-04   488   0.172E-01    0.310E-02
DAV:   4    -0.610300193917E+02   -0.15496E-04   -0.84669E-05   312   0.607E-02
  63 F= -.61030019E+02 E0= -.61030015E+02  d E =-.116549E-01
 curvature:  -0.42 expect dE=-0.245E-01 dE for cont linesearch -0.664E-06
 trial: gam= 0.94108 g(F)=  0.521E-01 g(S)=  0.687E-02 ort =-0.438E-03 (trialstep = 0.214E+00)
 search vector abs. value=  0.164E+00
 bond charge predicted
       N       E                     dE             d eps       ncg     rms          rms(c)
DAV:   1    -0.610410881641E+02   -0.11084E-01   -0.76937E-01   384   0.622E+00    0.267E-01
DAV:   2    -0.610403942945E+02    0.69387E-03   -0.15781E-02   528   0.846E-01    0.158E-01
DAV:   3    -0.610396553167E+02    0.73898E-03   -0.27838E-03   496   0.320E-01    0.595E-02
DAV:   4    -0.610396474612E+02    0.78555E-05   -0.39735E-04   440   0.121E-01
  64 F= -.61039647E+02 E0= -.61039644E+02  d E =-.962807E-02
 trial-energy change:   -0.009628  1 .order   -0.009846   -0.012528   -0.007164
 step:   0.4994(harm=  0.4994)  dis= 0.01039  next Energy=   -61.044649 (dE=-0.146E-01)
 bond charge predicted
       N       E                     dE             d eps       ncg     rms          rms(c)
DAV:   1    -0.610464969794E+02   -0.68417E-02   -0.13714E+00   384   0.830E+00    0.360E-01
DAV:   2    -0.610451947911E+02    0.13022E-02   -0.28088E-02   528   0.113E+00    0.213E-01
DAV:   3    -0.610438775452E+02    0.13172E-02   -0.50425E-03   504   0.431E-01    0.799E-02
DAV:   4    -0.610438616056E+02    0.15940E-04   -0.73928E-04   464   0.164E-01
  65 F= -.61043862E+02 E0= -.61043860E+02  d E =-.138422E-01
 curvature:  -0.70 expect dE=-0.405E-01 dE for cont linesearch -0.104E-06
 trial: gam= 1.03533 g(F)=  0.537E-01 g(S)=  0.414E-02 ort =-0.156E-03 (trialstep = 0.191E+00)
 search vector abs. value=  0.234E+00
 bond charge predicted
       N       E                     dE             d eps       ncg     rms          rms(c)
DAV:   1    -0.610542465197E+02   -0.10369E-01   -0.84966E-01   384   0.646E+00    0.297E-01
DAV:   2    -0.610531156976E+02    0.11308E-02   -0.16752E-02   544   0.876E-01    0.171E-01
DAV:   3    -0.610521388343E+02    0.97686E-03   -0.28427E-03   512   0.314E-01    0.555E-02
DAV:   4    -0.610521647829E+02   -0.25949E-04   -0.24518E-04   384   0.102E-01
  66 F= -.61052165E+02 E0= -.61052163E+02  d E =-.830318E-02
 trial-energy change:   -0.008303  1 .order   -0.008728   -0.010985   -0.006470
 step:   0.4635(harm=  0.4635)  dis= 0.01245  next Energy=   -61.057224 (dE=-0.134E-01)
 bond charge predicted
       N       E                     dE             d eps       ncg     rms          rms(c)
DAV:   1    -0.610608162044E+02   -0.86774E-02   -0.17510E+00   384   0.926E+00    0.425E-01
DAV:   2    -0.610586052355E+02    0.22110E-02   -0.34463E-02   528   0.126E+00    0.243E-01
DAV:   3    -0.610566575674E+02    0.19477E-02   -0.56950E-03   520   0.449E-01    0.784E-02
DAV:   4    -0.610566722002E+02   -0.14633E-04   -0.50484E-04   448   0.142E-01
  67 F= -.61056672E+02 E0= -.61056670E+02  d E =-.128106E-01
 curvature:  -0.94 expect dE=-0.502E-01 dE for cont linesearch -0.393E-04
 trial: gam= 0.82923 g(F)=  0.457E-01 g(S)=  0.775E-02 ort = 0.313E-02 (trialstep = 0.245E+00)
 search vector abs. value=  0.219E+00
 bond charge predicted
       N       E                     dE             d eps       ncg     rms          rms(c)
DAV:   1    -0.610674756178E+02   -0.10818E-01   -0.13791E+00   416   0.835E+00    0.365E-01
DAV:   2    -0.610664541032E+02    0.10215E-02   -0.25280E-02   488   0.106E+00    0.220E-01
DAV:   3    -0.610651129301E+02    0.13412E-02   -0.36810E-03   504   0.410E-01    0.738E-02
DAV:   4    -0.610651232181E+02   -0.10288E-04   -0.42380E-04   408   0.132E-01
  68 F= -.61065123E+02 E0= -.61065120E+02  d E =-.845102E-02
 trial-energy change:   -0.008451  1 .order   -0.008793   -0.013735   -0.003852
 step:   0.3407(harm=  0.3407)  dis= 0.00933  next Energy=   -61.066216 (dE=-0.954E-02)
 bond charge predicted
       N       E                     dE             d eps       ncg     rms          rms(c)
DAV:   1    -0.610662909751E+02   -0.11780E-02   -0.21130E-01   448   0.327E+00    0.143E-01
DAV:   2    -0.610660581846E+02    0.23279E-03   -0.33978E-03   504   0.393E-01    0.864E-02
DAV:   3    -0.610658666808E+02    0.19150E-03   -0.63837E-04   480   0.165E-01    0.288E-02
DAV:   4    -0.610659025515E+02   -0.35871E-04   -0.70008E-05   304   0.558E-02
  69 F= -.61065903E+02 E0= -.61065898E+02  d E =-.923035E-02
 curvature:  -0.67 expect dE=-0.160E-01 dE for cont linesearch -0.158E-05
 trial: gam= 0.53040 g(F)=  0.225E-01 g(S)=  0.159E-02 ort =-0.721E-03 (trialstep = 0.264E+00)
 search vector abs. value=  0.850E-01
 bond charge predicted
       N       E                     dE             d eps       ncg     rms          rms(c)
DAV:   1    -0.610715665533E+02   -0.56999E-02   -0.58603E-01   384   0.544E+00    0.256E-01
DAV:   2    -0.610710823965E+02    0.48416E-03   -0.13067E-02   472   0.777E-01    0.147E-01
DAV:   3    -0.610704833367E+02    0.59906E-03   -0.22519E-03   496   0.304E-01    0.477E-02
DAV:   4    -0.610704837490E+02   -0.41232E-06   -0.20489E-04   304   0.980E-02
  70 F= -.61070484E+02 E0= -.61070480E+02  d E =-.458120E-02
 trial-energy change:   -0.004581  1 .order   -0.004639   -0.006257   -0.003021
 step:   0.5109(harm=  0.5109)  dis= 0.01158  next Energy=   -61.071952 (dE=-0.605E-02)
 bond charge predicted
       N       E                     dE             d eps       ncg     rms          rms(c)
DAV:   1    -0.610728833412E+02   -0.24000E-02   -0.51258E-01   384   0.509E+00    0.241E-01
DAV:   2    -0.610724264471E+02    0.45689E-03   -0.11459E-02   480   0.727E-01    0.139E-01
DAV:   3    -0.610718929514E+02    0.53350E-03   -0.20185E-03   504   0.286E-01    0.458E-02
DAV:   4    -0.610718983452E+02   -0.53937E-05   -0.18744E-04   304   0.934E-02
  71 F= -.61071898E+02 E0= -.61071895E+02  d E =-.599579E-02
 curvature:  -0.92 expect dE=-0.247E-01 dE for cont linesearch -0.551E-06
 trial: gam= 1.05110 g(F)=  0.240E-01 g(S)=  0.301E-02 ort = 0.226E-03 (trialstep = 0.220E+00)
 search vector abs. value=  0.121E+00
 bond charge predicted
       N       E                     dE             d eps       ncg     rms          rms(c)
DAV:   1    -0.610778131342E+02   -0.59202E-02   -0.53061E-01   384   0.502E+00    0.245E-01
DAV:   2    -0.610771133248E+02    0.69981E-03   -0.11306E-02   496   0.730E-01    0.139E-01
DAV:   3    -0.610765206190E+02    0.59271E-03   -0.23230E-03   512   0.284E-01    0.436E-02
DAV:   4    -0.610765361080E+02   -0.15489E-04   -0.24422E-04   304   0.982E-02
  72 F= -.61076536E+02 E0= -.61076533E+02  d E =-.463776E-02
 trial-energy change:   -0.004638  1 .order   -0.004769   -0.005978   -0.003559
 step:   0.5425(harm=  0.5425)  dis= 0.01162  next Energy=   -61.079284 (dE=-0.739E-02)
 bond charge predicted
       N       E                     dE             d eps       ncg     rms          rms(c)
DAV:   1    -0.610817048906E+02   -0.51843E-02   -0.11487E+00   384   0.738E+00    0.363E-01
DAV:   2    -0.610801981382E+02    0.15068E-02   -0.24545E-02   504   0.108E+00    0.205E-01
DAV:   3    -0.610789281413E+02    0.12700E-02   -0.50170E-03   512   0.418E-01    0.639E-02
DAV:   4    -0.610789368287E+02   -0.86875E-05   -0.56099E-04   400   0.144E-01
  73 F= -.61078937E+02 E0= -.61078935E+02  d E =-.703848E-02
 curvature:  -1.21 expect dE=-0.437E-01 dE for cont linesearch -0.745E-05
 trial: gam= 1.39729 g(F)=  0.344E-01 g(S)=  0.175E-02 ort = 0.865E-03 (trialstep = 0.125E+00)
 search vector abs. value=  0.275E+00
 bond charge predicted
       N       E                     dE             d eps       ncg     rms          rms(c)
DAV:   1    -0.610833538875E+02   -0.44257E-02   -0.37450E-01   384   0.416E+00    0.202E-01
DAV:   2    -0.610830050851E+02    0.34880E-03   -0.76528E-03   488   0.601E-01    0.117E-01
DAV:   3    -0.610826216790E+02    0.38341E-03   -0.13082E-03   488   0.217E-01    0.362E-02
DAV:   4    -0.610826537745E+02   -0.32096E-04   -0.13030E-04   304   0.749E-02
  74 F= -.61082654E+02 E0= -.61082651E+02  d E =-.371695E-02
 trial-energy change:   -0.003717  1 .order   -0.003826   -0.004679   -0.002972
 step:   0.3430(harm=  0.3430)  dis= 0.00781  next Energy=   -61.085349 (dE=-0.641E-02)
 bond charge predicted
       N       E                     dE             d eps       ncg     rms          rms(c)
DAV:   1    -0.610872875108E+02   -0.46658E-02   -0.11383E+00   384   0.724E+00    0.349E-01
DAV:   2    -0.610863346119E+02    0.95290E-03   -0.23231E-02   488   0.105E+00    0.201E-01
DAV:   3    -0.610851771568E+02    0.11575E-02   -0.38292E-03   512   0.373E-01    0.610E-02
DAV:   4    -0.610851810261E+02   -0.38693E-05   -0.37485E-04   336   0.125E-01
  75 F= -.61085181E+02 E0= -.61085179E+02  d E =-.624420E-02
 curvature:  -1.26 expect dE=-0.251E-01 dE for cont linesearch -0.184E-04
 trial: gam= 0.52525 g(F)=  0.180E-01 g(S)=  0.194E-02 ort = 0.200E-02 (trialstep = 0.169E+00)
 search vector abs. value=  0.980E-01
 bond charge predicted
       N       E                     dE             d eps       ncg     rms          rms(c)
DAV:   1    -0.610886181173E+02   -0.34410E-02   -0.24730E-01   384   0.329E+00    0.160E-01
DAV:   2    -0.610884553978E+02    0.16272E-03   -0.50013E-03   488   0.494E-01    0.932E-02
DAV:   3    -0.610882238558E+02    0.23154E-03   -0.79579E-04   448   0.175E-01    0.300E-02
DAV:   4    -0.610882594345E+02   -0.35579E-04   -0.71760E-05   320   0.602E-02
  76 F= -.61088259E+02 E0= -.61088257E+02  d E =-.307841E-02
 trial-energy change:   -0.003078  1 .order   -0.003078   -0.003534   -0.002622
 step:   0.6534(harm=  0.6534)  dis= 0.00733  next Energy=   -61.092024 (dE=-0.684E-02)
 bond charge predicted
       N       E                     dE             d eps       ncg     rms          rms(c)
DAV:   1    -0.610951701405E+02   -0.69463E-02   -0.20442E+00   384   0.943E+00    0.460E-01
DAV:   2    -0.610940549949E+02    0.11151E-02   -0.41975E-02   472   0.143E+00    0.265E-01
DAV:   3    -0.610920935668E+02    0.19614E-02   -0.65913E-03   504   0.509E-01    0.847E-02
DAV:   4    -0.610920826436E+02    0.10923E-04   -0.64777E-04   424   0.171E-01
  77 F= -.61092083E+02 E0= -.61092080E+02  d E =-.690162E-02
 curvature:  -1.53 expect dE=-0.304E-01 dE for cont linesearch -0.747E-04
 trial: gam= 1.00330 g(F)=  0.173E-01 g(S)=  0.257E-02 ort = 0.219E-02 (trialstep = 0.212E+00)
 search vector abs. value=  0.123E+00
 bond charge predicted
       N       E                     dE             d eps       ncg     rms          rms(c)
DAV:   1    -0.610961924503E+02   -0.40989E-02   -0.50971E-01   384   0.459E+00    0.230E-01
DAV:   2    -0.610959665683E+02    0.22588E-03   -0.11164E-02   472   0.725E-01    0.134E-01
DAV:   3    -0.610954777309E+02    0.48884E-03   -0.16212E-03   480   0.259E-01    0.390E-02
DAV:   4    -0.610955194746E+02   -0.41744E-04   -0.14554E-04   296   0.850E-02
  78 F= -.61095519E+02 E0= -.61095517E+02  d E =-.343683E-02
 trial-energy change:   -0.003437  1 .order   -0.003501   -0.004675   -0.002328
 step:   0.4218(harm=  0.4218)  dis= 0.00706  next Energy=   -61.096738 (dE=-0.466E-02)
 bond charge predicted
       N       E                     dE             d eps       ncg     rms          rms(c)
DAV:   1    -0.610973951490E+02   -0.19174E-02   -0.50191E-01   384   0.455E+00    0.227E-01
DAV:   2    -0.610971812083E+02    0.21394E-03   -0.10956E-02   480   0.717E-01    0.132E-01
DAV:   3    -0.610966906743E+02    0.49053E-03   -0.15433E-03   512   0.251E-01    0.382E-02
DAV:   4    -0.610967181377E+02   -0.27463E-04   -0.13719E-04   288   0.819E-02
  79 F= -.61096718E+02 E0= -.61096716E+02  d E =-.463549E-02
 curvature:  -1.17 expect dE=-0.283E-01 dE for cont linesearch -0.295E-05
 trial: gam= 1.31011 g(F)=  0.223E-01 g(S)=  0.179E-02 ort = 0.555E-03 (trialstep = 0.132E+00)
 search vector abs. value=  0.237E+00
 bond charge predicted
       N       E                     dE             d eps       ncg     rms          rms(c)
DAV:   1    -0.610999298695E+02   -0.32392E-02   -0.38833E-01   384   0.389E+00    0.192E-01
DAV:   2    -0.610998687405E+02    0.61129E-04   -0.80700E-03   480   0.597E-01    0.113E-01
DAV:   3    -0.610995476693E+02    0.32107E-03   -0.81322E-04   464   0.190E-01    0.344E-02
DAV:   4    -0.610995711603E+02   -0.23491E-04   -0.93046E-05   288   0.641E-02
  80 F= -.61099571E+02 E0= -.61099569E+02  d E =-.285302E-02
 ZBRENT: can't locate minimum, use default step
 trial-energy change:   -0.002853  1 .order   -0.002869   -0.003277   -0.002462
 step:   0.5276(harm=  0.5302)  dis= 0.01051  next Energy=   -61.103304 (dE=-0.659E-02)
 bond charge predicted
       N       E                     dE             d eps       ncg     rms          rms(c)
DAV:   1    -0.611058099477E+02   -0.62623E-02   -0.34986E+00   384   0.117E+01    0.581E-01
DAV:   2    -0.611056490010E+02    0.16095E-03   -0.74035E-02   480   0.182E+00    0.340E-01
DAV:   3    -0.611028494877E+02    0.27995E-02   -0.74045E-03   472   0.583E-01    0.100E-01
DAV:   4    -0.611028367399E+02    0.12748E-04   -0.94401E-04   416   0.195E-01
  81 F= -.61102837E+02 E0= -.61102836E+02  d E =-.611860E-02
 curvature:  -2.52 expect dE=-0.656E-01 dE for cont linesearch -0.293E-05
 trial: gam= 1.01812 g(F)=  0.193E-01 g(S)=  0.668E-02 ort = 0.524E-03 (trialstep = 0.183E+00)
 search vector abs. value=  0.272E+00
 bond charge predicted
       N       E                     dE             d eps       ncg     rms          rms(c)
DAV:   1    -0.611079608224E+02   -0.51113E-02   -0.87243E-01   384   0.566E+00    0.294E-01
DAV:   2    -0.611076984815E+02    0.26234E-03   -0.18246E-02   432   0.889E-01    0.167E-01
DAV:   3    -0.611069404649E+02    0.75802E-03   -0.20573E-03   520   0.286E-01    0.480E-02
DAV:   4    -0.611069960349E+02   -0.55570E-04   -0.16048E-04   280   0.861E-02
  82 F= -.61106996E+02 E0= -.61106995E+02  d E =-.415929E-02
 ZBRENT: can't locate minimum, use default step
 trial-energy change:   -0.004159  1 .order   -0.004383   -0.004865   -0.003902
 step:   0.7334(harm=  0.9260)  dis= 0.01703  next Energy=   -61.115122 (dE=-0.123E-01)
 bond charge predicted
       N       E                     dE             d eps       ncg     rms          rms(c)
DAV:   1    -0.611200264899E+02   -0.13086E-01   -0.78999E+00   384   0.171E+01    0.880E-01
DAV:   2    -0.611195529412E+02    0.47355E-03   -0.17358E-01   448   0.271E+00    0.494E-01
DAV:   3    -0.611132604477E+02    0.62925E-02   -0.18143E-02   544   0.867E-01    0.141E-01
DAV:   4    -0.611132268488E+02    0.33599E-04   -0.14651E-03   432   0.244E-01    0.726E-02
DAV:   5    -0.611134399063E+02   -0.21306E-03   -0.26623E-04   288   0.109E-01    0.230E-02
DAV:   6    -0.611136235622E+02   -0.18366E-03   -0.68268E-05   320   0.608E-02    0.134E-02
DAV:   7    -0.611138912241E+02   -0.26766E-03   -0.11582E-04   336   0.559E-02    0.113E-02
[...]
DAV:   3    -0.611193257658E+02    0.85514E-03   -0.24070E-03   544   0.306E-01    0.480E-02
DAV:   4    -0.611193113303E+02    0.14436E-04   -0.17637E-04   416   0.919E-02
  84 F= -.61119311E+02 E0= -.61119310E+02  d E =-.518286E-02
 trial-energy change:   -0.005183  1 .order   -0.005360   -0.006190   -0.004531
 step:   0.4419(harm=  0.4419)  dis= 0.01598  next Energy=   -61.125674 (dE=-0.115E-01)
 bond charge predicted
       N       E                     dE             d eps       ncg     rms          rms(c)
DAV:   1    -0.611306702736E+02   -0.11345E-01   -0.68918E+00   384   0.159E+01    0.826E-01
DAV:   2    -0.611297922416E+02    0.87803E-03   -0.15588E-01   480   0.257E+00    0.473E-01
DAV:   3    -0.611237637095E+02    0.60285E-02   -0.18436E-02   544   0.859E-01    0.134E-01
DAV:   4    -0.611237945710E+02   -0.30861E-04   -0.13738E-03   424   0.248E-01    0.707E-02
DAV:   5    -0.611240036226E+02   -0.20905E-03   -0.30877E-04   368   0.114E-01    0.193E-02
DAV:   6    -0.611241411976E+02   -0.13758E-03   -0.55723E-05   328   0.553E-02    0.120E-02
DAV:   7    -0.611243816991E+02   -0.24050E-03   -0.10108E-04   344   0.515E-02    0.991E-03
DAV:   8    -0.611245126831E+02   -0.13098E-03   -0.44052E-05   344   0.414E-02    0.540E-03
DAV:   9    -0.611246129879E+02   -0.10030E-03   -0.34578E-05   352   0.246E-02    0.431E-03
DAV:  10    -0.611246605886E+02   -0.47601E-04   -0.11251E-05   352   0.167E-02
  85 F= -.61124661E+02 E0= -.61124660E+02  d E =-.105321E-01
 curvature:  -2.85 expect dE=-0.166E+00 dE for cont linesearch -0.119E-03
 trial: gam= 1.65784 g(F)=  0.460E-01 g(S)=  0.123E-01 ort =-0.529E-02 (trialstep = 0.652E-01)
 search vector abs. value=  0.189E+01
 bond charge predicted
       N       E                     dE             d eps       ncg     rms          rms(c)
DAV:   1    -0.611283667049E+02   -0.37537E-02   -0.78263E-01   384   0.521E+00    0.274E-01
DAV:   2    -0.611282475501E+02    0.11915E-03   -0.16252E-02   456   0.829E-01    0.155E-01
DAV:   3    -0.611275366396E+02    0.71091E-03   -0.17859E-03   544   0.266E-01    0.407E-02
DAV:   4    -0.611275238896E+02    0.12750E-04   -0.11043E-04   352   0.748E-02
  86 F= -.61127524E+02 E0= -.61127523E+02  d E =-.286330E-02
 ZBRENT: can't locate minimum, use default step
 trial-energy change:   -0.002863  1 .order   -0.003045   -0.003226   -0.002865
 step:   0.2608(harm=  0.5833)  dis= 0.01452  next Energy=   -61.139088 (dE=-0.144E-01)
 bond charge predicted
       N       E                     dE             d eps       ncg     rms          rms(c)
DAV:   1    -0.611393477402E+02   -0.11811E-01   -0.70750E+00   384   0.157E+01    0.826E-01
DAV:   2    -0.611386318606E+02    0.71588E-03   -0.15354E-01   464   0.252E+00    0.468E-01
DAV:   3    -0.611327501451E+02    0.58817E-02   -0.16589E-02   544   0.825E-01    0.124E-01
DAV:   4    -0.611328074843E+02   -0.57339E-04   -0.10748E-03   424   0.219E-01    0.623E-02
DAV:   5    -0.611330268698E+02   -0.21939E-03   -0.18156E-04   296   0.958E-02    0.161E-02
DAV:   6    -0.611331878149E+02   -0.16095E-03   -0.49594E-05   328   0.525E-02    0.113E-02
DAV:   7    -0.611334753394E+02   -0.28752E-03   -0.12127E-04   360   0.531E-02    0.808E-03
DAV:   8    -0.611335678989E+02   -0.92560E-04   -0.23488E-05   352   0.283E-02
  87 F= -.61133568E+02 E0= -.61133567E+02  d E =-.890731E-02
 curvature:  -6.84 expect dE=-0.382E+00 dE for cont linesearch -0.128E-02
 ZBRENT: increasing intervall
 opt :   0.6520  next Energy=   -61.131093 (dE=-0.643E-02)
 bond charge predicted
       N       E                     dE             d eps       ncg     rms          rms(c)
DAV:   1    -0.611490191934E+02   -0.15544E-01   -0.28819E+01   384   0.324E+01    0.168E+00
DAV:   2    -0.611532801350E+02   -0.42609E-02   -0.69821E-01   432   0.538E+00    0.957E-01
DAV:   3    -0.611304853980E+02    0.22795E-01   -0.70539E-02   544   0.178E+00    0.253E-01
DAV:   4    -0.611303887496E+02    0.96648E-04   -0.41571E-03   440   0.444E-01    0.125E-01
DAV:   5    -0.611308198585E+02   -0.43111E-03   -0.73620E-04   400   0.195E-01    0.322E-02
DAV:   6    -0.611311402193E+02   -0.32036E-03   -0.12343E-04   344   0.818E-02    0.204E-02
DAV:   7    -0.611316535502E+02   -0.51333E-03   -0.29329E-04   344   0.782E-02    0.153E-02
DAV:   8    -0.611318624835E+02   -0.20893E-03   -0.86083E-05   352   0.505E-02    0.840E-03
DAV:   9    -0.611320076499E+02   -0.14517E-03   -0.56540E-05   352   0.311E-02    0.575E-03
DAV:  10    -0.611321069493E+02   -0.99299E-04   -0.27681E-05   344   0.241E-02
  88 F= -.61132107E+02 E0= -.61132106E+02  d E =-.744636E-02
 curvature:  13.25 expect dE= 0.137E+01 dE for cont linesearch  0.657E-02
 ZBRENT: bracketing found
 ZBRENT: interpolating
 opt :   0.4096  next Energy=   -61.134967 (dE=-0.103E-01)
 bond charge predicted
       N       E                     dE             d eps       ncg     rms          rms(c)
DAV:   1    -0.611454276998E+02   -0.13420E-01   -0.11085E+01   384   0.202E+01    0.104E+00
DAV:   2    -0.611448137613E+02    0.61394E-03   -0.24451E-01   456   0.304E+00    0.591E-01
DAV:   3    -0.611351592569E+02    0.96545E-02   -0.27150E-02   560   0.106E+00    0.154E-01
DAV:   4    -0.611348190562E+02    0.34020E-03   -0.18743E-03   480   0.310E-01    0.790E-02
DAV:   5    -0.611346142979E+02    0.20476E-03   -0.27070E-04   384   0.115E-01    0.206E-02
DAV:   6    -0.611346104585E+02    0.38394E-05   -0.52845E-05   304   0.588E-02
  89 F= -.61134610E+02 E0= -.61134610E+02  d E =-.994987E-02
 curvature:  -2.82 expect dE=-0.189E+00 dE for cont linesearch -0.356E-04
 trial: gam= 0.35334 g(F)=  0.529E-01 g(S)=  0.140E-01 ort =-0.489E-02 (trialstep = 0.134E+00)
 search vector abs. value=  0.300E+00
 bond charge predicted
       N       E                     dE             d eps       ncg     rms          rms(c)
DAV:   1    -0.611408792792E+02   -0.62650E-02   -0.57125E-01   384   0.481E+00    0.227E-01
DAV:   2    -0.611413930903E+02   -0.51381E-03   -0.13788E-02   504   0.760E-01    0.144E-01
DAV:   3    -0.611411645171E+02    0.22857E-03   -0.11749E-03   488   0.258E-01    0.427E-02
DAV:   4    -0.611412222357E+02   -0.57719E-04   -0.11545E-04   336   0.819E-02
  90 F= -.61141222E+02 E0= -.61141222E+02  d E =-.661178E-02
 trial-energy change:   -0.006612  1 .order   -0.005898   -0.008741   -0.003055
 step:   0.1708(harm=  0.2061)  dis= 0.00542  next Energy=   -61.141656 (dE=-0.705E-02)
 bond charge predicted
       N       E                     dE             d eps       ncg     rms          rms(c)
DAV:   1    -0.611419725487E+02   -0.80803E-03   -0.43530E-02   384   0.134E+00    0.626E-02
DAV:   2    -0.611420246804E+02   -0.52132E-04   -0.10873E-03   488   0.212E-01    0.402E-02
DAV:   3    -0.611420139114E+02    0.10769E-04   -0.86862E-05   336   0.742E-02
  91 F= -.61142014E+02 E0= -.61142013E+02  d E =-.740345E-02
 curvature:  -0.36 expect dE=-0.522E-02 dE for cont linesearch -0.160E-03
 trial: gam= 0.04171 g(F)=  0.117E-01 g(S)=  0.282E-02 ort = 0.115E-01 (trialstep = 0.141E+00)
 search vector abs. value=  0.160E-01
 bond charge predicted
       N       E                     dE             d eps       ncg     rms          rms(c)
DAV:   1    -0.611439136218E+02   -0.18889E-02   -0.34409E-02   416   0.136E+00    0.678E-02
DAV:   2    -0.611438863639E+02    0.27258E-04   -0.95976E-04   504   0.214E-01
  92 F= -.61143886E+02 E0= -.61143886E+02  d E =-.187245E-02
 ZBRENT: can't locate minimum, use default step
 trial-energy change:   -0.001872  1 .order   -0.001877   -0.002115   -0.001639
 step:   0.5657(harm=  0.6279)  dis= 0.00715  next Energy=   -61.146709 (dE=-0.470E-02)
 bond charge predicted
       N       E                     dE             d eps       ncg     rms          rms(c)
DAV:   1    -0.611461041248E+02   -0.21905E-02   -0.30246E-01   416   0.402E+00    0.209E-01
DAV:   2    -0.611457256598E+02    0.37846E-03   -0.81734E-03   472   0.624E-01    0.120E-01
DAV:   3    -0.611454058924E+02    0.31977E-03   -0.14701E-03   504   0.262E-01    0.431E-02
DAV:   4    -0.611453920413E+02    0.13851E-04   -0.17664E-04   400   0.832E-02
  93 F= -.61145392E+02 E0= -.61145392E+02  d E =-.337813E-02
 curvature:  -0.33 expect dE=-0.666E-02 dE for cont linesearch -0.223E-03
 trial: gam= 0.00000 g(F)=  0.176E-01 g(S)=  0.264E-02 ort =-0.328E-02 (trialstep = 0.179E+00)
 search vector abs. value=  0.202E-01
 bond charge predicted
       N       E                     dE             d eps       ncg     rms          rms(c)
DAV:   1    -0.611477070861E+02   -0.23012E-02   -0.75923E-02   384   0.187E+00    0.966E-02
DAV:   2    -0.611476792473E+02    0.27839E-04   -0.22890E-03   480   0.322E-01    0.558E-02
DAV:   3    -0.611475910352E+02    0.88212E-04   -0.29573E-04   480   0.110E-01
  94 F= -.61147591E+02 E0= -.61147591E+02  d E =-.219899E-02
 trial-energy change:   -0.002199  1 .order   -0.002223   -0.003611   -0.000835
 step:   0.2323(harm=  0.2323)  dis= 0.00344  next Energy=   -61.147741 (dE=-0.235E-02)
 bond charge predicted
       N       E                     dE             d eps       ncg     rms          rms(c)
DAV:   1    -0.611477219497E+02   -0.42702E-04   -0.67508E-03   384   0.559E-01    0.328E-02
DAV:   2    -0.611477168316E+02    0.51181E-05   -0.16342E-04   352   0.935E-02
  95 F= -.61147717E+02 E0= -.61147716E+02  d E =-.232479E-02
 curvature:  -0.12 expect dE=-0.945E-03 dE for cont linesearch -0.880E-06
 trial: gam= 0.38289 g(F)=  0.646E-02 g(S)=  0.167E-02 ort = 0.391E-03 (trialstep = 0.189E+00)
 search vector abs. value=  0.114E-01
 bond charge predicted
       N       E                     dE             d eps       ncg     rms          rms(c)
DAV:   1    -0.611491923477E+02   -0.14704E-02   -0.39543E-02   384   0.138E+00    0.750E-02
DAV:   2    -0.611490731677E+02    0.11918E-03   -0.97983E-04   496   0.216E-01    0.421E-02
DAV:   3    -0.611490052785E+02    0.67889E-04   -0.22627E-04   432   0.877E-02
  96 F= -.61149005E+02 E0= -.61149005E+02  d E =-.128845E-02
 trial-energy change:   -0.001288  1 .order   -0.001340   -0.001568   -0.001112
 step:   0.6505(harm=  0.6505)  dis= 0.00512  next Energy=   -61.150410 (dE=-0.269E-02)
 bond charge predicted
       N       E                     dE             d eps       ncg     rms          rms(c)
DAV:   1    -0.611514704784E+02   -0.23973E-02   -0.23634E-01   384   0.336E+00    0.183E-01
DAV:   2    -0.611508069489E+02    0.66353E-03   -0.58748E-03   496   0.527E-01    0.103E-01
DAV:   3    -0.611504171439E+02    0.38981E-03   -0.13772E-03   504   0.215E-01    0.371E-02
DAV:   4    -0.611504121223E+02    0.50215E-05   -0.10916E-04   320   0.701E-02
  97 F= -.61150412E+02 E0= -.61150412E+02  d E =-.269529E-02
 curvature:  -0.45 expect dE=-0.627E-02 dE for cont linesearch -0.171E-04
 trial: gam= 1.64012 g(F)=  0.105E-01 g(S)=  0.356E-02 ort = 0.659E-03 (trialstep = 0.685E-01)
 search vector abs. value=  0.468E-01
 bond charge predicted
       N       E                     dE             d eps       ncg     rms          rms(c)
DAV:   1    -0.611515056152E+02   -0.10885E-02   -0.19199E-02   384   0.962E-01    0.558E-02
DAV:   2    -0.611514536844E+02    0.51931E-04   -0.44069E-04   424   0.136E-01
  98 F= -.61151454E+02 E0= -.61151453E+02  d E =-.104156E-02
 ZBRENT: can't locate minimum, use default step
 trial-energy change:   -0.001042  1 .order   -0.001057   -0.001035   -0.001079
 step:   0.2741(harm=  0.2741)  dis= 0.00340  next Energy=   -61.154904 (dE=-0.449E-02)
 bond charge predicted
       N       E                     dE             d eps       ncg     rms          rms(c)
DAV:   1    -0.611548601789E+02   -0.33546E-02   -0.17094E-01   384   0.286E+00    0.171E-01
DAV:   2    -0.611543546401E+02    0.50554E-03   -0.40949E-03   504   0.401E-01    0.918E-02
DAV:   3    -0.611540912128E+02    0.26343E-03   -0.84894E-04   496   0.177E-01    0.316E-02
DAV:   4    -0.611540860564E+02    0.51564E-05   -0.52049E-05   288   0.511E-02
  99 F= -.61154086E+02 E0= -.61154086E+02  d E =-.367393E-02
 curvature:  -0.65 expect dE=-0.526E-02 dE for cont linesearch -0.194E-02
 ZBRENT: increasing intervall
 opt :   0.6852  next Energy=   -61.157349 (dE=-0.694E-02)
 bond charge predicted
       N       E                     dE             d eps       ncg     rms          rms(c)
DAV:   1    -0.611609547119E+02   -0.68635E-02   -0.69202E-01   384   0.575E+00    0.339E-01
DAV:   2    -0.611590493619E+02    0.19054E-02   -0.16406E-02   480   0.814E-01    0.179E-01
DAV:   3    -0.611580530274E+02    0.99633E-03   -0.35522E-03   480   0.361E-01    0.617E-02
DAV:   4    -0.611580094889E+02    0.43539E-04   -0.21241E-04   336   0.103E-01
 100 F= -.61158009E+02 E0= -.61158009E+02  d E =-.759737E-02
 curvature:  -1.09 expect dE=-0.742E-02 dE for cont linesearch -0.122E-02
 ZBRENT: increasing intervall
 opt :   1.5074  next Energy=   -61.160183 (dE=-0.977E-02)
 bond charge predicted
       N       E                     dE             d eps       ncg     rms          rms(c)
DAV:   1    -0.611720259325E+02   -0.13973E-01   -0.27690E+00   384   0.115E+01    0.684E-01
DAV:   2    -0.611642922867E+02    0.77336E-02   -0.65682E-02   480   0.163E+00    0.362E-01
DAV:   3    -0.611603631008E+02    0.39292E-02   -0.14113E-02   496   0.728E-01    0.125E-01
DAV:   4    -0.611601801649E+02    0.18294E-03   -0.95541E-04   456   0.206E-01    0.632E-02
DAV:   5    -0.611602525137E+02   -0.72349E-04   -0.30722E-04   336   0.974E-02
 101 F= -.61160253E+02 E0= -.61160252E+02  d E =-.984039E-02
 curvature:  -1.94 expect dE=-0.576E-01 dE for cont linesearch -0.107E-03
 trial: gam= 2.58074 g(F)=  0.290E-01 g(S)=  0.700E-03 ort =-0.161E-02 (trialstep = 0.501E-01)
 search vector abs. value=  0.333E+00
 bond charge predicted
       N       E                     dE             d eps       ncg     rms          rms(c)
DAV:   1    -0.611618469152E+02   -0.16668E-02   -0.78209E-02   400   0.192E+00    0.111E-01
DAV:   2    -0.611616188329E+02    0.22808E-03   -0.18928E-03   456   0.276E-01    0.589E-02
DAV:   3    -0.611615388156E+02    0.80017E-04   -0.38655E-04   336   0.117E-01
 102 F= -.61161539E+02 E0= -.61161538E+02  d E =-.128630E-02
 ZBRENT: can't locate minimum, use default step
 trial-energy change:   -0.001286  1 .order   -0.001150   -0.001278   -0.001023
 step:   0.2003(harm=  0.2511)  dis= 0.00586  next Energy=   -61.163457 (dE=-0.320E-02)
 bond charge predicted
       N       E                     dE             d eps       ncg     rms          rms(c)
DAV:   1    -0.611665771214E+02   -0.49583E-02   -0.70188E-01   384   0.573E+00    0.333E-01
DAV:   2    -0.611646062997E+02    0.19708E-02   -0.17000E-02   544   0.829E-01    0.178E-01
DAV:   3    -0.611635734790E+02    0.10328E-02   -0.34123E-03   488   0.347E-01    0.646E-02
DAV:   4    -0.611635614884E+02    0.11991E-04   -0.21919E-04   352   0.101E-01
 103 F= -.61163561E+02 E0= -.61163561E+02  d E =-.330897E-02
 curvature:  -1.54 expect dE=-0.154E-01 dE for cont linesearch -0.269E-03
 trial: gam=-0.12185 g(F)=  0.921E-02 g(S)=  0.824E-03 ort = 0.765E-02 (trialstep = 0.801E-01)
 search vector abs. value=  0.131E-01
 bond charge predicted
       N       E                     dE             d eps       ncg     rms          rms(c)
DAV:   1    -0.611642780490E+02   -0.70457E-03   -0.85760E-03   384   0.671E-01    0.324E-02
DAV:   2    -0.611643187607E+02   -0.40712E-04   -0.24361E-04   400   0.108E-01
 104 F= -.61164319E+02 E0= -.61164318E+02  d E =-.757272E-03
 ZBRENT: can't locate minimum, use default step
 trial-energy change:   -0.000757  1 .order   -0.000661   -0.000729   -0.000593
 step:   0.3204(harm=  0.4287)  dis= 0.00277  next Energy=   -61.165512 (dE=-0.195E-02)
 bond charge predicted
       N       E                     dE             d eps       ncg     rms          rms(c)
DAV:   1    -0.611654946135E+02   -0.12166E-02   -0.76206E-02   384   0.200E+00    0.932E-02
DAV:   2    -0.611655147481E+02   -0.20135E-04   -0.21557E-03   480   0.316E-01    0.538E-02
DAV:   3    -0.611654959233E+02    0.18825E-04   -0.31935E-04   416   0.118E-01
 105 F= -.61165496E+02 E0= -.61165496E+02  d E =-.193443E-02
 curvature:  -0.28 expect dE=-0.110E-02 dE for cont linesearch -0.357E-04
 trial: gam= 0.20067 g(F)=  0.330E-02 g(S)=  0.633E-03 ort = 0.130E-02 (trialstep = 0.128E+00)
 search vector abs. value=  0.498E-02
 bond charge predicted
       N       E                     dE             d eps       ncg     rms          rms(c)
DAV:   1    -0.611660298466E+02   -0.51510E-03   -0.10163E-02   384   0.661E-01    0.234E-02
DAV:   2    -0.611660500169E+02   -0.20170E-04   -0.20170E-04   448   0.958E-02
 106 F= -.61166050E+02 E0= -.61166050E+02  d E =-.554094E-03
 ZBRENT: can't locate minimum, use default step
 trial-energy change:   -0.000554  1 .order   -0.000517   -0.000538   -0.000496
 step:   0.5127(harm=  1.6430)  dis= 0.00240  next Energy=   -61.168943 (dE=-0.345E-02)
 bond charge predicted
       N       E                     dE             d eps       ncg     rms          rms(c)
DAV:   1    -0.611673223342E+02   -0.12925E-02   -0.90252E-02   384   0.197E+00    0.611E-02
DAV:   2    -0.611674148557E+02   -0.92521E-04   -0.17425E-03   520   0.275E-01    0.372E-02
DAV:   3    -0.611673943600E+02    0.20496E-04   -0.10352E-04   368   0.750E-02
 107 F= -.61167394E+02 E0= -.61167394E+02  d E =-.189844E-02
 curvature:  -0.43 expect dE=-0.104E-02 dE for cont linesearch -0.679E-03
 trial: gam= 0.01633 g(F)=  0.177E-02 g(S)=  0.633E-03 ort = 0.280E-02 (trialstep = 0.205E+00)
 search vector abs. value=  0.249E-02
 bond charge predicted
       N       E                     dE             d eps       ncg     rms          rms(c)
DAV:   1    -0.611678848656E+02   -0.47001E-03   -0.12755E-02   384   0.713E-01    0.256E-02
DAV:   2    -0.611678978189E+02   -0.12953E-04   -0.24251E-04   400   0.105E-01
 108 F= -.61167898E+02 E0= -.61167897E+02  d E =-.503459E-03
 ZBRENT: can't locate minimum, use default step
 trial-energy change:   -0.000503  1 .order   -0.000473   -0.000501   -0.000445
 step:   0.8203(harm=  1.8361)  dis= 0.00250  next Energy=   -61.169639 (dE=-0.225E-02)
 bond charge predicted
       N       E                     dE             d eps       ncg     rms          rms(c)
DAV:   1    -0.611688942232E+02   -0.10094E-02   -0.11260E-01   384   0.212E+00    0.736E-02
DAV:   2    -0.611690059628E+02   -0.11174E-03   -0.22127E-03   536   0.306E-01    0.454E-02
DAV:   3    -0.611689529415E+02    0.53021E-04   -0.12737E-04   328   0.833E-02
 109 F= -.61168953E+02 E0= -.61168953E+02  d E =-.155858E-02
 curvature:  -0.57 expect dE=-0.307E-02 dE for cont linesearch -0.320E-03
 trial: gam= 0.00000 g(F)=  0.467E-02 g(S)=  0.701E-03 ort = 0.118E-02 (trialstep = 0.152E+00)
 search vector abs. value=  0.537E-02
 bond charge predicted
       N       E                     dE             d eps       ncg     rms          rms(c)
DAV:   1    -0.611695088703E+02   -0.50291E-03   -0.17710E-02   384   0.924E-01    0.401E-02
DAV:   2    -0.611695246242E+02   -0.15754E-04   -0.53013E-04   480   0.158E-01
 110 F= -.61169525E+02 E0= -.61169524E+02  d E =-.571683E-03
 trial-energy change:   -0.000572  1 .order   -0.000555   -0.000818   -0.000292
 step:   0.2370(harm=  0.2370)  dis= 0.00189  next Energy=   -61.169589 (dE=-0.636E-03)
 bond charge predicted
       N       E                     dE             d eps       ncg     rms          rms(c)
DAV:   1    -0.611695686208E+02   -0.59751E-04   -0.48301E-03   384   0.484E-01    0.254E-02
DAV:   2    -0.611695709577E+02   -0.23368E-05   -0.10899E-04   336   0.815E-02
 111 F= -.61169571E+02 E0= -.61169571E+02  d E =-.618016E-03
 curvature:  -0.12 expect dE=-0.382E-03 dE for cont linesearch -0.219E-05
 trial: gam= 0.65887 g(F)=  0.266E-02 g(S)=  0.559E-03 ort =-0.315E-03 (trialstep = 0.169E+00)
 search vector abs. value=  0.514E-02
 reached required accuracy - stopping structural energy minimisation
 writing wavefunctions
Sun Mar  6 20:14:41 CST 2022
