Sun Mar  6 19:51:03 CST 2022
 running on   48 total cores
 distrk:  each k-point on   48 cores,    1 groups
 distr:  one band on   24 cores,    2 groups
 using from now: INCAR     
 vasp.5.3.5 31Mar14 (build Jan 11 2016 19:50:55) complex                        
  
 POSCAR found type information on POSCAR  B  C  Na
 POSCAR found :  3 types and       9 ions
 scaLAPACK will be used

 ----------------------------------------------------------------------------- 
|                                                                             |
|           W    W    AA    RRRRR   N    N  II  N    N   GGGG   !!!           |
|           W    W   A  A   R    R  NN   N  II  NN   N  G    G  !!!           |
|           W    W  A    A  R    R  N N  N  II  N N  N  G       !!!           |
|           W WW W  AAAAAA  RRRRR   N  N N  II  N  N N  G  GGG   !            |
|           WW  WW  A    A  R   R   N   NN  II  N   NN  G    G                |
|           W    W  A    A  R    R  N    N  II  N    N   GGGG   !!!           |
|                                                                             |
|      For optimal performance we recommend to set                            |
|        NCORE= 4 - approx SQRT( number of cores)                             |
|      NCORE specifies how many cores store one orbital (NPAR=cpu/NCORE).     |
|      This setting can  greatly improve the performance of VASP for DFT.     |
|      The default, NPAR=number of cores might be grossly inefficient         |
|      on modern multi-core architectures or massively parallel machines.     |
|      Do your own testing !!!!                                               |
|      Unfortunately you need to use the default for GW and RPA calculations. |
|      (for HF NCORE is supported but not extensively tested yet)             |
|                                                                             |
 ----------------------------------------------------------------------------- 

 LDA part: xc-table for Pade appr. of Perdew
 POSCAR, INCAR and KPOINTS ok, starting setup
 WARNING: small aliasing (wrap around) errors must be expected
 FFT: planning ...
 WAVECAR not read
 entering main loop
       N       E                     dE             d eps       ncg     rms          rms(c)
DAV:   1     0.261484898204E+03    0.26148E+03   -0.11750E+04   488   0.828E+02
DAV:   2    -0.239085715191E+01   -0.26388E+03   -0.25329E+03   568   0.221E+02
DAV:   3    -0.647059255172E+02   -0.62315E+02   -0.62028E+02   472   0.106E+02
DAV:   4    -0.680441166750E+02   -0.33382E+01   -0.33124E+01   520   0.330E+01
DAV:   5    -0.681512835339E+02   -0.10717E+00   -0.10697E+00   496   0.561E+00    0.131E+01
DAV:   6    -0.615295357774E+02    0.66217E+01   -0.14380E+01   464   0.256E+01    0.690E+00
DAV:   7    -0.598488840227E+02    0.16807E+01   -0.48489E+00   624   0.126E+01    0.326E+00
DAV:   8    -0.594980099418E+02    0.35087E+00   -0.10193E+00   512   0.483E+00    0.137E+00
DAV:   9    -0.593791215330E+02    0.11889E+00   -0.14793E-01   496   0.199E+00    0.505E-01
DAV:  10    -0.593360331646E+02    0.43088E-01   -0.37473E-02   552   0.105E+00    0.274E-01
DAV:  11    -0.593205391858E+02    0.15494E-01   -0.15962E-02   512   0.598E-01    0.180E-01
DAV:  12    -0.593215637323E+02   -0.10245E-02   -0.49577E-03   512   0.368E-01    0.967E-02
DAV:  13    -0.593227616366E+02   -0.11979E-02   -0.32479E-03   488   0.209E-01    0.626E-02
DAV:  14    -0.593255245721E+02   -0.27629E-02   -0.11294E-03   352   0.151E-01    0.417E-02
DAV:  15    -0.593282525863E+02   -0.27280E-02   -0.11319E-03   368   0.975E-02    0.284E-02
DAV:  16    -0.593307066392E+02   -0.24541E-02   -0.13260E-03   384   0.777E-02    0.150E-02
DAV:  17    -0.593315781943E+02   -0.87156E-03   -0.27845E-04   352   0.463E-02    0.987E-03
DAV:  18    -0.593320158163E+02   -0.43762E-03   -0.12798E-04   320   0.300E-02    0.767E-03
DAV:  19    -0.593322055355E+02   -0.18972E-03   -0.67864E-05   312   0.265E-02    0.311E-03
DAV:  20    -0.593322445424E+02   -0.39007E-04   -0.82330E-06   352   0.141E-02
   1 F= -.59332245E+02 E0= -.59306619E+02  d E =-.593322E+02
 curvature:   0.00 expect dE= 0.000E+00 dE for cont linesearch  0.000E+00
 trial: gam= 0.00000 g(F)=  0.986E+00 g(S)=  0.262E+00 ort = 0.000E+00 (trialstep = 0.100E+01)
 search vector abs. value=  0.125E+01
 bond charge predicted
       N       E                     dE             d eps       ncg     rms          rms(c)
DAV:   1    -0.591858081360E+02    0.14640E+00   -0.16400E+02   464   0.101E+02    0.365E+00
DAV:   2    -0.592373314816E+02   -0.51523E-01   -0.38103E+00   496   0.140E+01    0.217E+00
DAV:   3    -0.591498843268E+02    0.87447E-01   -0.25195E-01   544   0.337E+00    0.127E+00
DAV:   4    -0.591258331401E+02    0.24051E-01   -0.61332E-02   576   0.154E+00    0.362E-01
DAV:   5    -0.591237392710E+02    0.20939E-02   -0.13305E-02   512   0.668E-01    0.105E-01
DAV:   6    -0.591236625250E+02    0.76746E-04   -0.15273E-03   560   0.234E-01    0.677E-02
DAV:   7    -0.591237158695E+02   -0.53345E-04   -0.38106E-04   416   0.115E-01
   2 F= -.59123716E+02 E0= -.59102236E+02  d E =0.208529E+00
 trial-energy change:    0.208529  1 .order    0.156146   -1.247702    1.559993
 step:   0.4172(harm=  0.4444)  dis= 0.05131  next Energy=   -59.588693 (dE=-0.256E+00)
 bond charge predicted
       N       E                     dE             d eps       ncg     rms          rms(c)
DAV:   1    -0.596217198119E+02   -0.49806E+00   -0.50026E+01   384   0.476E+01    0.212E+00
DAV:   2    -0.596268020421E+02   -0.50822E-02   -0.13019E+00   544   0.764E+00    0.125E+00
DAV:   3    -0.595928777853E+02    0.33924E-01   -0.12928E-01   544   0.251E+00    0.471E-01
DAV:   4    -0.595899494715E+02    0.29283E-02   -0.16753E-02   528   0.815E-01    0.188E-01
DAV:   5    -0.595897005311E+02    0.24894E-03   -0.19758E-03   512   0.277E-01    0.720E-02
DAV:   6    -0.595896723351E+02    0.28196E-04   -0.20148E-04   384   0.976E-02
   3 F= -.59589672E+02 E0= -.59568974E+02  d E =-.257428E+00
 curvature:  -0.22 expect dE=-0.177E+00 dE for cont linesearch -0.882E-04
 trial: gam= 0.65725 g(F)=  0.762E+00 g(S)=  0.362E-01 ort =-0.223E-01 (trialstep = 0.843E+00)
 search vector abs. value=  0.131E+01
 bond charge predicted
       N       E                     dE             d eps       ncg     rms          rms(c)
DAV:   1    -0.595634721078E+02    0.26228E-01   -0.13920E+02   448   0.872E+01    0.312E+00
DAV:   2    -0.596420626088E+02   -0.78591E-01   -0.32700E+00   504   0.129E+01    0.172E+00
DAV:   3    -0.595767532920E+02    0.65309E-01   -0.23312E-01   528   0.300E+00    0.106E+00
DAV:   4    -0.595567846133E+02    0.19969E-01   -0.54668E-02   496   0.129E+00    0.447E-01
DAV:   5    -0.595539012430E+02    0.28834E-02   -0.10556E-02   496   0.565E-01    0.133E-01
DAV:   6    -0.595537417647E+02    0.15948E-03   -0.11624E-03   544   0.204E-01    0.487E-02
DAV:   7    -0.595538592844E+02   -0.11752E-03   -0.18573E-04   384   0.839E-02    0.240E-02
DAV:   8    -0.595540356199E+02   -0.17634E-03   -0.11584E-04   384   0.565E-02    0.117E-02
DAV:   9    -0.595541981775E+02   -0.16256E-03   -0.37336E-05   384   0.321E-02    0.654E-03
DAV:  10    -0.595543840192E+02   -0.18584E-03   -0.55212E-05   352   0.253E-02    0.399E-03
DAV:  11    -0.595544719774E+02   -0.87958E-04   -0.14575E-05   352   0.153E-02
   4 F= -.59554472E+02 E0= -.59522412E+02  d E =0.352004E-01
 trial-energy change:    0.035200  1 .order    0.020857   -0.660217    0.701932
 step:   0.3954(harm=  0.4086)  dis= 0.05549  next Energy=   -59.742999 (dE=-0.153E+00)
 bond charge predicted
       N       E                     dE             d eps       ncg     rms          rms(c)
DAV:   1    -0.597498284453E+02   -0.19544E+00   -0.35791E+01   384   0.402E+01    0.155E+00
DAV:   2    -0.597638737422E+02   -0.14045E-01   -0.91523E-01   536   0.633E+00    0.891E-01
DAV:   3    -0.597458245624E+02    0.18049E-01   -0.74813E-02   568   0.184E+00    0.442E-01
DAV:   4    -0.597434985254E+02    0.23260E-02   -0.10607E-02   496   0.600E-01    0.206E-01
DAV:   5    -0.597432960714E+02    0.20245E-03   -0.16491E-03   480   0.235E-01    0.573E-02
DAV:   6    -0.597434141442E+02   -0.11807E-03   -0.30474E-04   472   0.104E-01    0.268E-02
DAV:   7    -0.597435878908E+02   -0.17375E-03   -0.70173E-05   352   0.492E-02    0.114E-02
DAV:   8    -0.597437160471E+02   -0.12816E-03   -0.27620E-05   336   0.296E-02    0.704E-03
DAV:   9    -0.597438606110E+02   -0.14456E-03   -0.33170E-05   336   0.252E-02    0.356E-03
DAV:  10    -0.597439534423E+02   -0.92831E-04   -0.23763E-05   336   0.181E-02
   5 F= -.59743953E+02 E0= -.59717438E+02  d E =-.154281E+00
 curvature:  -0.34 expect dE=-0.463E-01 dE for cont linesearch -0.202E-04
 trial: gam= 0.22934 g(F)=  0.885E-01 g(S)=  0.473E-01 ort =-0.880E-02 (trialstep = 0.754E+00)
 search vector abs. value=  0.201E+00
 bond charge predicted
       N       E                     dE             d eps       ncg     rms          rms(c)
DAV:   1    -0.597808230274E+02   -0.36962E-01   -0.14131E+01   384   0.240E+01    0.959E-01
DAV:   2    -0.597926651526E+02   -0.11842E-01   -0.33304E-01   496   0.374E+00    0.528E-01
DAV:   3    -0.597886348715E+02    0.40303E-02   -0.17514E-02   512   0.908E-01    0.262E-01
DAV:   4    -0.597876983863E+02    0.93649E-03   -0.38397E-03   512   0.403E-01    0.694E-02
DAV:   5    -0.597876382151E+02    0.60171E-04   -0.53676E-04   480   0.139E-01
   6 F= -.59787638E+02 E0= -.59758874E+02  d E =-.436848E-01
 trial-energy change:   -0.043685  1 .order   -0.043933   -0.100807    0.012941
 step:   0.6678(harm=  0.6678)  dis= 0.03592  next Energy=   -59.788622 (dE=-0.447E-01)
 bond charge predicted
       N       E                     dE             d eps       ncg     rms          rms(c)
DAV:   1    -0.597883682320E+02   -0.66985E-03   -0.18107E-01   384   0.270E+00    0.106E-01
DAV:   2    -0.597884716160E+02   -0.10338E-03   -0.39327E-03   480   0.403E-01    0.617E-02
DAV:   3    -0.597884518433E+02    0.19773E-04   -0.20998E-04   416   0.969E-02
   7 F= -.59788452E+02 E0= -.59759832E+02  d E =-.444984E-01
 curvature:  -0.50 expect dE=-0.636E-01 dE for cont linesearch -0.418E-05
 trial: gam= 1.02607 g(F)=  0.108E+00 g(S)=  0.192E-01 ort =-0.129E-02 (trialstep = 0.440E+00)
 search vector abs. value=  0.336E+00
 bond charge predicted
       N       E                     dE             d eps       ncg     rms          rms(c)
DAV:   1    -0.598013729513E+02   -0.12901E-01   -0.84128E+00   384   0.192E+01    0.595E-01
DAV:   2    -0.598109057523E+02   -0.95328E-02   -0.19882E-01   512   0.287E+00    0.394E-01
DAV:   3    -0.598091320030E+02    0.17737E-02   -0.12491E-02   560   0.742E-01    0.259E-01
DAV:   4    -0.598089129725E+02    0.21903E-03   -0.18629E-03   512   0.254E-01    0.126E-01
DAV:   5    -0.598088864263E+02    0.26546E-04   -0.55446E-04   512   0.132E-01
   8 F= -.59808886E+02 E0= -.59778341E+02  d E =-.204346E-01
 trial-energy change:   -0.020435  1 .order   -0.020938   -0.055356    0.013479
 step:   0.3507(harm=  0.3538)  dis= 0.02189  next Energy=   -59.810258 (dE=-0.218E-01)
 bond charge predicted
       N       E                     dE             d eps       ncg     rms          rms(c)
DAV:   1    -0.598100084266E+02   -0.10955E-02   -0.34431E-01   384   0.387E+00    0.115E-01
DAV:   2    -0.598104180897E+02   -0.40966E-03   -0.80404E-03   496   0.590E-01    0.802E-02
DAV:   3    -0.598103423440E+02    0.75746E-04   -0.54888E-04   496   0.155E-01
   9 F= -.59810342E+02 E0= -.59780509E+02  d E =-.218905E-01
 curvature:  -0.47 expect dE=-0.351E-01 dE for cont linesearch -0.140E-05
 trial: gam= 0.64491 g(F)=  0.568E-01 g(S)=  0.177E-01 ort =-0.999E-03 (trialstep = 0.422E+00)
 search vector abs. value=  0.213E+00
 bond charge predicted
       N       E                     dE             d eps       ncg     rms          rms(c)
DAV:   1    -0.598295182817E+02   -0.19100E-01   -0.43876E+00   384   0.138E+01    0.507E-01
DAV:   2    -0.598306570127E+02   -0.11387E-02   -0.11450E-01   480   0.201E+00    0.323E-01
DAV:   3    -0.598290828805E+02    0.15741E-02   -0.70407E-03   480   0.522E-01    0.197E-01
DAV:   4    -0.598287737332E+02    0.30915E-03   -0.17281E-03   512   0.273E-01    0.627E-02
DAV:   5    -0.598288086489E+02   -0.34916E-04   -0.25743E-04   448   0.107E-01
  10 F= -.59828809E+02 E0= -.59798183E+02  d E =-.184663E-01
 trial-energy change:   -0.018466  1 .order   -0.018547   -0.031181   -0.005913
 step:   0.5209(harm=  0.5209)  dis= 0.02183  next Energy=   -59.829581 (dE=-0.192E-01)
 bond charge predicted
       N       E                     dE             d eps       ncg     rms          rms(c)
DAV:   1    -0.598295995793E+02   -0.82585E-03   -0.24026E-01   384   0.322E+00    0.116E-01
DAV:   2    -0.598296318164E+02   -0.32237E-04   -0.58604E-03   512   0.468E-01    0.751E-02
DAV:   3    -0.598295642347E+02    0.67582E-04   -0.32629E-04   416   0.116E-01
  11 F= -.59829564E+02 E0= -.59798738E+02  d E =-.192219E-01
 curvature:  -0.75 expect dE=-0.589E-01 dE for cont linesearch -0.215E-04
 trial: gam= 1.05655 g(F)=  0.605E-01 g(S)=  0.180E-01 ort = 0.247E-02 (trialstep = 0.293E+00)
 search vector abs. value=  0.321E+00
 bond charge predicted
       N       E                     dE             d eps       ncg     rms          rms(c)
DAV:   1    -0.598571520668E+02   -0.27520E-01   -0.27860E+00   384   0.109E+01    0.558E-01
DAV:   2    -0.598520598470E+02    0.50922E-02   -0.93574E-02   512   0.163E+00    0.334E-01
DAV:   3    -0.598497887199E+02    0.22711E-02   -0.68065E-03   448   0.487E-01    0.188E-01
DAV:   4    -0.598493562456E+02    0.43247E-03   -0.25610E-03   464   0.357E-01    0.458E-02
DAV:   5    -0.598493729370E+02   -0.16691E-04   -0.28997E-04   464   0.122E-01
  12 F= -.59849373E+02 E0= -.59819103E+02  d E =-.198087E-01
 trial-energy change:   -0.019809  1 .order   -0.020216   -0.023743   -0.016688
 step:   0.9850(harm=  0.9850)  dis= 0.04424  next Energy=   -59.869516 (dE=-0.400E-01)
 bond charge predicted
       N       E                     dE             d eps       ncg     rms          rms(c)
DAV:   1    -0.599174530115E+02   -0.68097E-01   -0.15764E+01   384   0.259E+01    0.137E+00
DAV:   2    -0.598902046089E+02    0.27248E-01   -0.60596E-01   512   0.409E+00    0.802E-01
DAV:   3    -0.598755757717E+02    0.14629E-01   -0.39199E-02   480   0.121E+00    0.451E-01
DAV:   4    -0.598724317087E+02    0.31441E-02   -0.14618E-02   512   0.823E-01    0.129E-01
DAV:   5    -0.598723282982E+02    0.10341E-03   -0.24414E-03   496   0.308E-01    0.496E-02
DAV:   6    -0.598724443673E+02   -0.11607E-03   -0.31689E-04   464   0.105E-01    0.220E-02
DAV:   7    -0.598725706511E+02   -0.12628E-03   -0.39327E-05   320   0.412E-02    0.108E-02
DAV:   8    -0.598727073659E+02   -0.13671E-03   -0.39090E-05   336   0.311E-02    0.557E-03
DAV:   9    -0.598728237711E+02   -0.11641E-03   -0.24595E-05   320   0.223E-02    0.313E-03
DAV:  10    -0.598729116723E+02   -0.87901E-04   -0.20743E-05   336   0.172E-02
  13 F= -.59872912E+02 E0= -.59843524E+02  d E =-.433474E-01
 curvature:  -1.95 expect dE=-0.176E+00 dE for cont linesearch -0.478E-03
 trial: gam= 1.03290 g(F)=  0.598E-01 g(S)=  0.307E-01 ort = 0.887E-02 (trialstep = 0.307E+00)
 search vector abs. value=  0.452E+00
 bond charge predicted
       N       E                     dE             d eps       ncg     rms          rms(c)
DAV:   1    -0.599192842741E+02   -0.46461E-01   -0.39114E+00   384   0.133E+01    0.863E-01
DAV:   2    -0.599033149578E+02    0.15969E-01   -0.15854E-01   512   0.207E+00    0.482E-01
DAV:   3    -0.598983322079E+02    0.49827E-02   -0.15536E-02   496   0.730E-01    0.253E-01
DAV:   4    -0.598972078909E+02    0.11243E-02   -0.49925E-03   512   0.489E-01    0.641E-02
DAV:   5    -0.598971735771E+02    0.34314E-04   -0.71765E-04   512   0.180E-01
  14 F= -.59897174E+02 E0= -.59868233E+02  d E =-.242619E-01
 trial-energy change:   -0.024262  1 .order   -0.024254   -0.030557   -0.017952
 step:   0.7437(harm=  0.7437)  dis= 0.04137  next Energy=   -59.909949 (dE=-0.370E-01)
 bond charge predicted
       N       E                     dE             d eps       ncg     rms          rms(c)
DAV:   1    -0.599588231910E+02   -0.61615E-01   -0.79976E+00   384   0.190E+01    0.126E+00
DAV:   2    -0.599243337312E+02    0.34489E-01   -0.35022E-01   512   0.300E+00    0.701E-01
DAV:   3    -0.599130030588E+02    0.11331E-01   -0.32452E-02   496   0.107E+00    0.370E-01
DAV:   4    -0.599104751549E+02    0.25279E-02   -0.10625E-02   512   0.718E-01    0.975E-02
DAV:   5    -0.599104283296E+02    0.46825E-04   -0.16970E-03   512   0.270E-01    0.409E-02
DAV:   6    -0.599105001136E+02   -0.71784E-04   -0.17561E-04   368   0.777E-02
  15 F= -.59910500E+02 E0= -.59881651E+02  d E =-.375884E-01
 curvature:  -1.69 expect dE=-0.312E+00 dE for cont linesearch -0.224E-04
 trial: gam= 2.26636 g(F)=  0.169E+00 g(S)=  0.161E-01 ort = 0.245E-02 (trialstep = 0.708E-01)
 search vector abs. value=  0.252E+01
 bond charge predicted
       N       E                     dE             d eps       ncg     rms          rms(c)
DAV:   1    -0.599307141157E+02   -0.20286E-01   -0.11231E+00   384   0.714E+00    0.478E-01
DAV:   2    -0.599251306673E+02    0.55834E-02   -0.42519E-02   480   0.109E+00    0.267E-01
DAV:   3    -0.599235607440E+02    0.15699E-02   -0.43971E-03   472   0.389E-01    0.137E-01
DAV:   4    -0.599231890966E+02    0.37165E-03   -0.16232E-03   496   0.267E-01    0.371E-02
DAV:   5    -0.599232419317E+02   -0.52835E-04   -0.18558E-04   320   0.999E-02
  16 F= -.59923242E+02 E0= -.59894871E+02  d E =-.127418E-01
 ZBRENT: can't locate minimum, use default step
 trial-energy change:   -0.012742  1 .order   -0.012732   -0.013497   -0.011967
 step:   0.2830(harm=  0.6240)  dis= 0.03835  next Energy=   -59.970020 (dE=-0.595E-01)
 bond charge predicted
       N       E                     dE             d eps       ncg     rms          rms(c)
DAV:   1    -0.600239590694E+02   -0.10077E+00   -0.10168E+01   384   0.212E+01    0.148E+00
DAV:   2    -0.599723552796E+02    0.51604E-01   -0.42901E-01   480   0.334E+00    0.832E-01
DAV:   3    -0.599564768396E+02    0.15878E-01   -0.39693E-02   480   0.122E+00    0.432E-01
DAV:   4    -0.599524028125E+02    0.40740E-02   -0.14157E-02   496   0.809E-01    0.119E-01
DAV:   5    -0.599523302595E+02    0.72553E-04   -0.20672E-03   480   0.308E-01    0.481E-02
DAV:   6    -0.599524171726E+02   -0.86913E-04   -0.26954E-04   368   0.972E-02
  17 F= -.59952417E+02 E0= -.59925196E+02  d E =-.419171E-01
 curvature:  -2.55 expect dE=-0.378E+00 dE for cont linesearch -0.131E-01
 ZBRENT: increasing intervall
 opt :   0.7075  next Energy=   -59.976982 (dE=-0.665E-01)
 bond charge predicted
       N       E                     dE             d eps       ncg     rms          rms(c)
DAV:   1    -0.602900657104E+02   -0.33774E+00   -0.41460E+01   384   0.426E+01    0.314E+00
DAV:   2    -0.600589003045E+02    0.23117E+00   -0.20410E+00   496   0.703E+00    0.169E+00
DAV:   3    -0.599926805907E+02    0.66220E-01   -0.15600E-01   480   0.258E+00    0.893E-01
DAV:   4    -0.599750258801E+02    0.17655E-01   -0.54545E-02   544   0.156E+00    0.283E-01
DAV:   5    -0.599739819765E+02    0.10439E-02   -0.11346E-02   496   0.609E-01    0.110E-01
DAV:   6    -0.599739751324E+02    0.68442E-05   -0.14649E-03   496   0.205E-01    0.453E-02
DAV:   7    -0.599743487883E+02   -0.37366E-03   -0.23630E-04   368   0.895E-02    0.210E-02
DAV:   8    -0.599747317009E+02   -0.38291E-03   -0.13790E-04   368   0.580E-02    0.130E-02
DAV:   9    -0.599751221530E+02   -0.39045E-03   -0.14589E-04   352   0.506E-02    0.787E-03
DAV:  10    -0.599753664500E+02   -0.24430E-03   -0.10118E-04   384   0.398E-02    0.513E-03
DAV:  11    -0.599754526438E+02   -0.86194E-04   -0.24358E-05   336   0.251E-02
  18 F= -.59975453E+02 E0= -.59951073E+02  d E =-.649525E-01
 curvature:  -4.80 expect dE=-0.228E+01 dE for cont linesearch -0.798E-04
 trial: gam= 2.52861 g(F)=  0.369E+00 g(S)=  0.107E+00 ort =-0.647E-02 (trialstep = 0.302E-01)
 search vector abs. value=  0.165E+02
 bond charge predicted
       N       E                     dE             d eps       ncg     rms          rms(c)
DAV:   1    -0.599999090441E+02   -0.24543E-01   -0.13870E+00   384   0.785E+00    0.542E-01
DAV:   2    -0.599911809189E+02    0.87281E-02   -0.53810E-02   496   0.122E+00    0.295E-01
DAV:   3    -0.599893372756E+02    0.18436E-02   -0.46900E-03   464   0.427E-01    0.150E-01
DAV:   4    -0.599888310165E+02    0.50626E-03   -0.16947E-03   512   0.276E-01    0.450E-02
DAV:   5    -0.599888226816E+02    0.83349E-05   -0.21764E-04   368   0.103E-01
  19 F= -.59988823E+02 E0= -.59965156E+02  d E =-.133700E-01
 ZBRENT: can't locate minimum, use default step
 trial-energy change:   -0.013370  1 .order   -0.013552   -0.013840   -0.013265
 step:   0.1206(harm=  0.7263)  dis= 0.04268  next Energy=   -60.142120 (dE=-0.167E+00)
 bond charge predicted
       N       E                     dE             d eps       ncg     rms          rms(c)
DAV:   1    -0.601301700125E+02   -0.14134E+00   -0.12578E+01   384   0.234E+01    0.169E+00
DAV:   2    -0.600490482839E+02    0.81122E-01   -0.56466E-01   496   0.378E+00    0.916E-01
DAV:   3    -0.600300119142E+02    0.19036E-01   -0.44183E-02   432   0.133E+00    0.484E-01
DAV:   4    -0.600246404485E+02    0.53715E-02   -0.16263E-02   528   0.856E-01    0.150E-01
DAV:   5    -0.600244658608E+02    0.17459E-03   -0.28464E-03   512   0.335E-01    0.535E-02
DAV:   6    -0.600245436396E+02   -0.77779E-04   -0.36720E-04   416   0.109E-01
  20 F= -.60024544E+02 E0= -.60002847E+02  d E =-.490910E-01
 curvature:  -3.18 expect dE=-0.110E+01 dE for cont linesearch -0.269E-01
 ZBRENT: increasing intervall
 opt :   0.3015  next Energy=   -60.080217 (dE=-0.105E+00)
 bond charge predicted
       N       E                     dE             d eps       ncg     rms          rms(c)
DAV:   1    -0.605271990812E+02   -0.50273E+00   -0.51461E+01   384   0.472E+01    0.358E+00
DAV:   2    -0.601721520858E+02    0.35505E+00   -0.27519E+00   512   0.798E+00    0.186E+00
DAV:   3    -0.600962361256E+02    0.75916E-01   -0.19422E-01   456   0.286E+00    0.100E+00
DAV:   4    -0.600735889155E+02    0.22647E-01   -0.61190E-02   560   0.160E+00    0.334E-01
DAV:   5    -0.600719968702E+02    0.15920E-02   -0.11171E-02   496   0.604E-01    0.108E-01
DAV:   6    -0.600721657181E+02   -0.16885E-03   -0.13562E-03   512   0.209E-01    0.489E-02
DAV:   7    -0.600727484582E+02   -0.58274E-03   -0.39579E-04   432   0.104E-01    0.220E-02
DAV:   8    -0.600731886889E+02   -0.44023E-03   -0.15297E-04   368   0.586E-02    0.135E-02
DAV:   9    -0.600736178394E+02   -0.42915E-03   -0.22783E-04   400   0.574E-02    0.950E-03
DAV:  10    -0.600738268299E+02   -0.20899E-03   -0.72289E-05   384   0.336E-02    0.530E-03
DAV:  11    -0.600739351597E+02   -0.10833E-03   -0.44064E-05   368   0.250E-02    0.323E-03
DAV:  12    -0.600739698590E+02   -0.34699E-04   -0.77373E-06   336   0.129E-02
  21 F= -.60073970E+02 E0= -.60056779E+02  d E =-.985172E-01
 curvature:  -6.58 expect dE=-0.178E+01 dE for cont linesearch -0.936E-02
 ZBRENT: increasing intervall
 opt :   0.6634  next Energy=   -60.049603 (dE=-0.742E-01)
 bond charge predicted
       N       E                     dE             d eps       ncg     rms          rms(c)
DAV:   1    -0.619372724028E+02   -0.18633E+01   -0.21823E+02   384   0.998E+01    0.779E+00
DAV:   2    -0.603909777206E+02    0.15463E+01   -0.12401E+01   496   0.189E+01    0.382E+00
DAV:   3    -0.601110026829E+02    0.27998E+00   -0.89260E-01   432   0.637E+00    0.204E+00
DAV:   4    -0.600389225114E+02    0.72080E-01   -0.16540E-01   528   0.269E+00    0.732E-01
DAV:   5    -0.600313670533E+02    0.75555E-02   -0.24688E-02   512   0.916E-01    0.176E-01
DAV:   6    -0.600320797332E+02   -0.71268E-03   -0.33928E-03   496   0.332E-01    0.843E-02
DAV:   7    -0.600332682090E+02   -0.11885E-02   -0.10572E-03   472   0.172E-01    0.424E-02
DAV:   8    -0.600342380247E+02   -0.96982E-03   -0.56632E-04   424   0.102E-01    0.244E-02
DAV:   9    -0.600350715639E+02   -0.83354E-03   -0.63816E-04   408   0.107E-01    0.175E-02
DAV:  10    -0.600354386054E+02   -0.36704E-03   -0.19493E-04   400   0.610E-02    0.975E-03
DAV:  11    -0.600355836865E+02   -0.14508E-03   -0.91227E-05   384   0.388E-02    0.597E-03
DAV:  12    -0.600356447568E+02   -0.61070E-04   -0.24702E-05   384   0.262E-02
  22 F= -.60035645E+02 E0= -.60028247E+02  d E =-.601921E-01
 curvature:  17.15 expect dE= 0.123E+02 dE for cont linesearch  0.209E+00
 ZBRENT: bracketing found
 ZBRENT: interpolating
 opt :   0.3937  next Energy=   -60.081031 (dE=-0.106E+00)
 bond charge predicted
       N       E                     dE             d eps       ncg     rms          rms(c)
DAV:   1    -0.609621598744E+02   -0.92658E+00   -0.12752E+02   384   0.833E+01    0.493E+00
DAV:   2    -0.603734684107E+02    0.58869E+00   -0.38658E+00   416   0.139E+01    0.268E+00
DAV:   3    -0.600994373101E+02    0.27403E+00   -0.12102E+00   464   0.571E+00    0.782E-01
DAV:   4    -0.600876674210E+02    0.11770E-01   -0.58674E-02   480   0.152E+00    0.408E-01
DAV:   5    -0.600821448037E+02    0.55226E-02   -0.14096E-02   560   0.664E-01    0.143E-01
DAV:   6    -0.600814562585E+02    0.68855E-03   -0.23978E-03   512   0.284E-01    0.706E-02
DAV:   7    -0.600812821170E+02    0.17414E-03   -0.76622E-04   560   0.150E-01    0.366E-02
DAV:   8    -0.600813863651E+02   -0.10425E-03   -0.18675E-04   384   0.776E-02    0.233E-02
DAV:   9    -0.600817956448E+02   -0.40928E-03   -0.33103E-04   448   0.759E-02    0.146E-02
DAV:  10    -0.600822039439E+02   -0.40830E-03   -0.59975E-05   384   0.454E-02    0.906E-03
DAV:  11    -0.600825772944E+02   -0.37335E-03   -0.54499E-05   352   0.340E-02    0.494E-03
DAV:  12    -0.600827214409E+02   -0.14415E-03   -0.99302E-06   320   0.199E-02    0.308E-03
DAV:  13    -0.600828388917E+02   -0.11745E-03   -0.64027E-06   336   0.116E-02    0.171E-03
DAV:  14    -0.600828731713E+02   -0.34280E-04   -0.22172E-06   280   0.655E-03
  23 F= -.60082873E+02 E0= -.60068026E+02  d E =-.107421E+00
 curvature:  -0.58 expect dE=-0.177E+00 dE for cont linesearch -0.334E-04
 trial: gam= 0.24391 g(F)=  0.268E+00 g(S)=  0.376E-01 ort = 0.308E-01 (trialstep = 0.103E+00)
 search vector abs. value=  0.130E+01
 bond charge predicted
       N       E                     dE             d eps       ncg     rms          rms(c)
DAV:   1    -0.601229302495E+02   -0.40091E-01   -0.12902E+00   384   0.768E+00    0.537E-01
DAV:   2    -0.601128704274E+02    0.10060E-01   -0.55024E-02   512   0.127E+00    0.272E-01
DAV:   3    -0.601112115505E+02    0.16589E-02   -0.44772E-03   504   0.422E-01    0.131E-01
DAV:   4    -0.601108321100E+02    0.37944E-03   -0.10789E-03   496   0.226E-01    0.411E-02
DAV:   5    -0.601108268246E+02    0.52854E-05   -0.10220E-04   352   0.711E-02
  24 F= -.60110827E+02 E0= -.60096536E+02  d E =-.279537E-01
 trial-energy change:   -0.027954  1 .order   -0.028067   -0.032230   -0.023904
 step:   0.3982(harm=  0.3982)  dis= 0.03896  next Energy=   -60.145252 (dE=-0.624E-01)
 bond charge predicted
       N       E                     dE             d eps       ncg     rms          rms(c)
DAV:   1    -0.602504298304E+02   -0.13960E+00   -0.10702E+01   384   0.220E+01    0.161E+00
DAV:   2    -0.601617957211E+02    0.88634E-01   -0.56437E-01   512   0.383E+00    0.814E-01
DAV:   3    -0.601480541359E+02    0.13742E-01   -0.36848E-02   496   0.124E+00    0.427E-01
DAV:   4    -0.601439168484E+02    0.41373E-02   -0.11903E-02   512   0.748E-01    0.126E-01
DAV:   5    -0.601437963342E+02    0.12051E-03   -0.12592E-03   512   0.241E-01    0.442E-02
DAV:   6    -0.601439582401E+02   -0.16191E-03   -0.23508E-04   384   0.911E-02    0.174E-02
DAV:   7    -0.601441715785E+02   -0.21334E-03   -0.61460E-05   360   0.470E-02    0.950E-03
DAV:   8    -0.601444266394E+02   -0.25506E-03   -0.80263E-05   368   0.399E-02    0.552E-03
DAV:   9    -0.601445633220E+02   -0.13668E-03   -0.39261E-05   368   0.264E-02    0.399E-03
DAV:  10    -0.601446453665E+02   -0.82045E-04   -0.22524E-05   352   0.200E-02
  25 F= -.60144645E+02 E0= -.60131593E+02  d E =-.617722E-01
 curvature:  -0.83 expect dE=-0.272E+00 dE for cont linesearch -0.267E-04
 trial: gam= 1.09711 g(F)=  0.312E+00 g(S)=  0.153E-01 ort =-0.648E-02 (trialstep = 0.112E+00)
 search vector abs. value=  0.188E+01
 bond charge predicted
       N       E                     dE             d eps       ncg     rms          rms(c)
DAV:   1    -0.601952446867E+02   -0.50681E-01   -0.19434E+00   384   0.935E+00    0.682E-01
DAV:   2    -0.601807706660E+02    0.14474E-01   -0.70324E-02   480   0.148E+00    0.347E-01
DAV:   3    -0.601778998583E+02    0.28708E-02   -0.81759E-03   472   0.565E-01    0.142E-01
DAV:   4    -0.601774305071E+02    0.46935E-03   -0.11044E-03   496   0.231E-01    0.430E-02
DAV:   5    -0.601774111119E+02    0.19395E-04   -0.11755E-04   328   0.713E-02
  26 F= -.60177411E+02 E0= -.60165971E+02  d E =-.327657E-01
 ZBRENT: can't locate minimum, use default step
 trial-energy change:   -0.032766  1 .order   -0.032932   -0.035954   -0.029910
 step:   0.4485(harm=  0.6671)  dis= 0.05335  next Energy=   -60.251594 (dE=-0.107E+00)
 bond charge predicted
       N       E                     dE             d eps       ncg     rms          rms(c)
DAV:   1    -0.604086841545E+02   -0.23125E+00   -0.17598E+01   384   0.278E+01    0.211E+00
DAV:   2    -0.602709728510E+02    0.13771E+00   -0.70974E-01   480   0.462E+00    0.107E+00
DAV:   3    -0.602453578384E+02    0.25615E-01   -0.67427E-02   464   0.170E+00    0.469E-01
DAV:   4    -0.602403488886E+02    0.50089E-02   -0.12107E-02   480   0.745E-01    0.131E-01
DAV:   5    -0.602402116316E+02    0.13726E-03   -0.12854E-03   480   0.228E-01    0.454E-02
DAV:   6    -0.602404780991E+02   -0.26647E-03   -0.28243E-04   368   0.938E-02    0.210E-02
DAV:   7    -0.602407791134E+02   -0.30101E-03   -0.11208E-04   368   0.557E-02    0.123E-02
DAV:   8    -0.602411109727E+02   -0.33186E-03   -0.10829E-04   368   0.465E-02    0.689E-03
DAV:   9    -0.602413315952E+02   -0.22062E-03   -0.94938E-05   384   0.369E-02    0.512E-03
DAV:  10    -0.602414199126E+02   -0.88317E-04   -0.30523E-05   384   0.243E-02
  27 F= -.60241420E+02 E0= -.60234491E+02  d E =-.967745E-01
 curvature:  -1.66 expect dE=-0.403E+00 dE for cont linesearch -0.108E-01
 ZBRENT: increasing intervall
 opt :   1.1213  next Energy=   -60.211297 (dE=-0.667E-01)
 bond charge predicted
       N       E                     dE             d eps       ncg     rms          rms(c)
DAV:   1    -0.609298038244E+02   -0.68847E+00   -0.72208E+01   384   0.562E+01    0.441E+00
DAV:   2    -0.603347514360E+02    0.59505E+00   -0.31830E+00   472   0.977E+00    0.223E+00
DAV:   3    -0.602270736233E+02    0.10768E+00   -0.31061E-01   488   0.367E+00    0.949E-01
DAV:   4    -0.602079590903E+02    0.19115E-01   -0.46485E-02   544   0.144E+00    0.282E-01
DAV:   5    -0.602067603726E+02    0.11987E-02   -0.54979E-03   480   0.455E-01    0.889E-02
DAV:   6    -0.602072360283E+02   -0.47566E-03   -0.10193E-03   496   0.181E-01    0.437E-02
DAV:   7    -0.602078711581E+02   -0.63513E-03   -0.28614E-04   368   0.875E-02    0.226E-02
DAV:   8    -0.602085051369E+02   -0.63398E-03   -0.28735E-04   416   0.724E-02    0.145E-02
DAV:   9    -0.602089908417E+02   -0.48570E-03   -0.25336E-04   368   0.612E-02    0.829E-03
DAV:  10    -0.602091139092E+02   -0.12307E-03   -0.43188E-05   384   0.298E-02    0.522E-03
DAV:  11    -0.602091864115E+02   -0.72502E-04   -0.30823E-05   368   0.209E-02
  28 F= -.60209186E+02 E0= -.60207842E+02  d E =-.645410E-01
 curvature:   4.60 expect dE= 0.564E+01 dE for cont linesearch  0.106E+00
 ZBRENT: bracketing found
 ZBRENT: interpolating
 opt :   0.6826  next Energy=   -60.254408 (dE=-0.110E+00)
 bond charge predicted
       N       E                     dE             d eps       ncg     rms          rms(c)
DAV:   1    -0.605253583962E+02   -0.31624E+00   -0.32307E+01   384   0.403E+01    0.271E+00
DAV:   2    -0.603309363946E+02    0.19442E+00   -0.93789E-01   464   0.639E+00    0.142E+00
DAV:   3    -0.602558591204E+02    0.75077E-01   -0.31010E-01   480   0.298E+00    0.371E-01
DAV:   4    -0.602532528984E+02    0.26062E-02   -0.13398E-02   520   0.791E-01    0.200E-01
DAV:   5    -0.602518203868E+02    0.14325E-02   -0.42702E-03   512   0.358E-01    0.676E-02
DAV:   6    -0.602517091046E+02    0.11128E-03   -0.42809E-04   512   0.135E-01    0.354E-02
DAV:   7    -0.602517110048E+02   -0.19001E-05   -0.15813E-04   384   0.715E-02
  29 F= -.60251711E+02 E0= -.60247411E+02  d E =-.107066E+00
 curvature:  -0.57 expect dE=-0.246E+00 dE for cont linesearch -0.164E-04
 trial: gam= 1.22753 g(F)=  0.419E+00 g(S)=  0.159E-01 ort =-0.738E-02 (trialstep = 0.131E+00)
 search vector abs. value=  0.325E+01
 bond charge predicted
       N       E                     dE             d eps       ncg     rms          rms(c)
DAV:   1    -0.603400781621E+02   -0.88369E-01   -0.48374E+00   384   0.147E+01    0.106E+00
DAV:   2    -0.603094699615E+02    0.30608E-01   -0.14856E-01   512   0.231E+00    0.549E-01
DAV:   3    -0.603010845650E+02    0.83854E-02   -0.40304E-02   496   0.114E+00    0.172E-01
DAV:   4    -0.603006406510E+02    0.44391E-03   -0.24795E-03   512   0.308E-01    0.789E-02
DAV:   5    -0.603005254681E+02    0.11518E-03   -0.31894E-04   432   0.117E-01    0.214E-02
DAV:   6    -0.603005850571E+02   -0.59589E-04   -0.56312E-05   336   0.590E-02
  30 F= -.60300585E+02 E0= -.60298030E+02  d E =-.488741E-01
 trial-energy change:   -0.048874  1 .order   -0.047946   -0.055721   -0.040171
 step:   0.3130(harm=  0.4691)  dis= 0.04970  next Energy=   -60.331032 (dE=-0.793E-01)
 bond charge predicted
       N       E                     dE             d eps       ncg     rms          rms(c)
DAV:   1    -0.604212955641E+02   -0.12077E+00   -0.94596E+00   384   0.205E+01    0.149E+00
DAV:   2    -0.603580374310E+02    0.63258E-01   -0.28899E-01   496   0.324E+00    0.773E-01
DAV:   3    -0.603392252834E+02    0.18812E-01   -0.83524E-02   496   0.163E+00    0.238E-01
DAV:   4    -0.603386582201E+02    0.56706E-03   -0.49235E-03   464   0.433E-01    0.111E-01
DAV:   5    -0.603387048362E+02   -0.46616E-04   -0.70023E-04   496   0.171E-01
  31 F= -.60338705E+02 E0= -.60337857E+02  d E =-.869938E-01
 curvature:  -1.41 expect dE=-0.323E+00 dE for cont linesearch -0.650E-02
 ZBRENT: increasing intervall
 opt :   0.6773  next Energy=   -60.316121 (dE=-0.644E-01)
 bond charge predicted
       N       E                     dE             d eps       ncg     rms          rms(c)
DAV:   1    -0.606614222559E+02   -0.32276E+00   -0.38437E+01   384   0.408E+01    0.306E+00
DAV:   2    -0.603986509192E+02    0.26277E+00   -0.11775E+00   472   0.672E+00    0.159E+00
DAV:   3    -0.603189066072E+02    0.79744E-01   -0.34606E-01   512   0.340E+00    0.493E-01
DAV:   4    -0.603166375733E+02    0.22690E-02   -0.20485E-02   480   0.884E-01    0.229E-01
DAV:   5    -0.603165002332E+02    0.13734E-03   -0.27805E-03   488   0.342E-01    0.680E-02
DAV:   6    -0.603172070668E+02   -0.70683E-03   -0.53938E-04   480   0.151E-01    0.320E-02
DAV:   7    -0.603179029594E+02   -0.69589E-03   -0.22852E-04   368   0.761E-02    0.195E-02
DAV:   8    -0.603185785010E+02   -0.67554E-03   -0.25217E-04   400   0.662E-02    0.109E-02
DAV:   9    -0.603190360354E+02   -0.45753E-03   -0.25901E-04   368   0.542E-02    0.800E-03
DAV:  10    -0.603191209415E+02   -0.84906E-04   -0.44372E-05   368   0.276E-02
  32 F= -.60319121E+02 E0= -.60319019E+02  d E =-.674099E-01
 curvature:   4.90 expect dE= 0.451E+01 dE for cont linesearch  0.831E-01
 ZBRENT: bracketing found
 ZBRENT: interpolating
 opt :   0.4379  next Energy=   -60.346347 (dE=-0.946E-01)
 bond charge predicted
       N       E                     dE             d eps       ncg     rms          rms(c)
DAV:   1    -0.604903699147E+02   -0.17133E+00   -0.17301E+01   384   0.289E+01    0.197E+00
DAV:   2    -0.603870943726E+02    0.10328E+00   -0.51078E-01   440   0.463E+00    0.103E+00
DAV:   3    -0.603482912469E+02    0.38803E-01   -0.17631E-01   480   0.222E+00    0.290E-01
DAV:   4    -0.603467549986E+02    0.15362E-02   -0.86012E-03   496   0.584E-01    0.148E-01
DAV:   5    -0.603460230648E+02    0.73193E-03   -0.16042E-03   544   0.222E-01    0.468E-02
DAV:   6    -0.603459813861E+02    0.41679E-04   -0.17966E-04   368   0.906E-02
  33 F= -.60345981E+02 E0= -.60345474E+02  d E =-.942704E-01
 curvature:  -0.45 expect dE=-0.163E+00 dE for cont linesearch -0.236E-04
 trial: gam= 0.78846 g(F)=  0.324E+00 g(S)=  0.367E-01 ort =-0.131E-01 (trialstep = 0.192E+00)
 search vector abs. value=  0.236E+01
 bond charge predicted
       N       E                     dE             d eps       ncg     rms          rms(c)
DAV:   1    -0.604559010884E+02   -0.10988E+00   -0.77029E+00   384   0.184E+01    0.129E+00
DAV:   2    -0.604179489015E+02    0.37952E-01   -0.20420E-01   512   0.277E+00    0.676E-01
DAV:   3    -0.604043003067E+02    0.13649E-01   -0.60009E-02   464   0.144E+00    0.186E-01
DAV:   4    -0.604037272919E+02    0.57301E-03   -0.30558E-03   512   0.372E-01    0.950E-02
DAV:   5    -0.604035669210E+02    0.16037E-03   -0.73137E-04   472   0.156E-01    0.286E-02
DAV:   6    -0.604036348938E+02   -0.67973E-04   -0.10887E-04   352   0.721E-02
  34 F= -.60403635E+02 E0= -.60403294E+02  d E =-.576535E-01
 trial-energy change:   -0.057654  1 .order   -0.056956   -0.067366   -0.046546
 step:   0.4788(harm=  0.6222)  dis= 0.06649  next Energy=   -60.440615 (dE=-0.946E-01)
 bond charge predicted
       N       E                     dE             d eps       ncg     rms          rms(c)
DAV:   1    -0.605709993286E+02   -0.16743E+00   -0.17271E+01   384   0.273E+01    0.195E+00
DAV:   2    -0.604780783499E+02    0.92921E-01   -0.46452E-01   512   0.420E+00    0.102E+00
DAV:   3    -0.604449360609E+02    0.33142E-01   -0.13435E-01   480   0.220E+00    0.286E-01
DAV:   4    -0.604441176871E+02    0.81837E-03   -0.68411E-03   464   0.555E-01    0.146E-01
DAV:   5    -0.604443573168E+02   -0.23963E-03   -0.17777E-03   480   0.246E-01    0.465E-02
DAV:   6    -0.604447331763E+02   -0.37586E-03   -0.31558E-04   368   0.118E-01    0.223E-02
DAV:   7    -0.604452078628E+02   -0.47469E-03   -0.16948E-04   352   0.703E-02    0.136E-02
DAV:   8    -0.604456200063E+02   -0.41214E-03   -0.10961E-04   352   0.539E-02    0.690E-03
DAV:   9    -0.604459466302E+02   -0.32662E-03   -0.15167E-04   336   0.444E-02    0.565E-03
DAV:  10    -0.604460236846E+02   -0.77054E-04   -0.32371E-05   368   0.266E-02
  35 F= -.60446024E+02 E0= -.60445717E+02  d E =-.100042E+00
 curvature:  -1.87 expect dE=-0.607E+00 dE for cont linesearch -0.236E-02
 trial: gam= 0.72600 g(F)=  0.313E+00 g(S)=  0.123E-01 ort = 0.546E-01 (trialstep = 0.250E+00)
 search vector abs. value=  0.165E+01
 bond charge predicted
       N       E                     dE             d eps       ncg     rms          rms(c)
DAV:   1    -0.605634780639E+02   -0.11753E+00   -0.10002E+01   384   0.208E+01    0.127E+00
DAV:   2    -0.605326058920E+02    0.30872E-01   -0.23032E-01   480   0.316E+00    0.700E-01
DAV:   3    -0.605171769277E+02    0.15429E-01   -0.62240E-02   512   0.153E+00    0.211E-01
DAV:   4    -0.605165543585E+02    0.62257E-03   -0.47582E-03   528   0.458E-01    0.110E-01
DAV:   5    -0.605165697445E+02   -0.15386E-04   -0.97636E-04   472   0.177E-01
  36 F= -.60516570E+02 E0= -.60516359E+02  d E =-.705461E-01
 trial-energy change:   -0.070546  1 .order   -0.072055   -0.091110   -0.053001
 step:   0.5967(harm=  0.5967)  dis= 0.06920  next Energy=   -60.554935 (dE=-0.109E+00)
 bond charge predicted
       N       E                     dE             d eps       ncg     rms          rms(c)
DAV:   1    -0.606481709849E+02   -0.13162E+00   -0.19513E+01   384   0.290E+01    0.180E+00
DAV:   2    -0.605835795267E+02    0.64591E-01   -0.44877E-01   480   0.447E+00    0.988E-01
DAV:   3    -0.605529409256E+02    0.30639E-01   -0.11934E-01   496   0.215E+00    0.304E-01
DAV:   4    -0.605519477814E+02    0.99314E-03   -0.90969E-03   480   0.631E-01    0.158E-01
DAV:   5    -0.605522001824E+02   -0.25240E-03   -0.20583E-03   464   0.260E-01    0.550E-02
DAV:   6    -0.605525855570E+02   -0.38537E-03   -0.34336E-04   384   0.129E-01    0.245E-02
DAV:   7    -0.605530502093E+02   -0.46465E-03   -0.19884E-04   336   0.770E-02    0.150E-02
DAV:   8    -0.605535075308E+02   -0.45732E-03   -0.15885E-04   336   0.601E-02    0.767E-03
DAV:   9    -0.605537529930E+02   -0.24546E-03   -0.12248E-04   336   0.427E-02    0.606E-03
DAV:  10    -0.605538366691E+02   -0.83676E-04   -0.42704E-05   368   0.256E-02
  37 F= -.60553837E+02 E0= -.60553476E+02  d E =-.107813E+00
 curvature:  -1.35 expect dE=-0.814E+00 dE for cont linesearch -0.610E-05
 trial: gam= 2.06692 g(F)=  0.562E+00 g(S)=  0.414E-01 ort = 0.273E-02 (trialstep = 0.687E-01)
 search vector abs. value=  0.766E+01
 bond charge predicted
       N       E                     dE             d eps       ncg     rms          rms(c)
DAV:   1    -0.606093523467E+02   -0.55599E-01   -0.36818E+00   384   0.123E+01    0.743E-01
DAV:   2    -0.605979653254E+02    0.11387E-01   -0.82316E-02   448   0.186E+00    0.409E-01
DAV:   3    -0.605921873579E+02    0.57780E-02   -0.24143E-02   480   0.922E-01    0.129E-01
DAV:   4    -0.605920093137E+02    0.17804E-03   -0.17292E-03   520   0.276E-01    0.695E-02
DAV:   5    -0.605920109882E+02   -0.16745E-05   -0.33683E-04   400   0.106E-01
  38 F= -.60592011E+02 E0= -.60591621E+02  d E =-.381743E-01
 ZBRENT: can't locate minimum, use default step
 trial-energy change:   -0.038174  1 .order   -0.038741   -0.041821   -0.035660
 step:   0.2748(harm=  0.4663)  dis= 0.07076  next Energy=   -60.695775 (dE=-0.142E+00)
 bond charge predicted
       N       E                     dE             d eps       ncg     rms          rms(c)
DAV:   1    -0.608278704527E+02   -0.23586E+00   -0.33412E+01   384   0.370E+01    0.231E+00
DAV:   2    -0.607176566471E+02    0.11021E+00   -0.78252E-01   512   0.589E+00    0.125E+00
DAV:   3    -0.606680121831E+02    0.49644E-01   -0.19957E-01   488   0.274E+00    0.426E-01
DAV:   4    -0.606664660133E+02    0.15462E-02   -0.15605E-02   480   0.806E-01    0.223E-01
DAV:   5    -0.606666802164E+02   -0.21420E-03   -0.29653E-03   488   0.306E-01    0.719E-02
DAV:   6    -0.606671052460E+02   -0.42503E-03   -0.65740E-04   448   0.160E-01    0.288E-02
DAV:   7    -0.606676003899E+02   -0.49514E-03   -0.22059E-04   320   0.811E-02    0.175E-02
DAV:   8    -0.606681384808E+02   -0.53809E-03   -0.20545E-04   368   0.606E-02    0.937E-03
DAV:   9    -0.606684259797E+02   -0.28750E-03   -0.14210E-04   352   0.442E-02    0.692E-03
DAV:  10    -0.606685176909E+02   -0.91711E-04   -0.52913E-05   384   0.271E-02
  39 F= -.60668518E+02 E0= -.60667830E+02  d E =-.114681E+00
 curvature:  -2.25 expect dE=-0.778E+00 dE for cont linesearch -0.147E-01
 ZBRENT: increasing intervall
 opt :   0.6869  next Energy=   -60.639049 (dE=-0.852E-01)
 bond charge predicted
       N       E                     dE             d eps       ncg     rms          rms(c)
DAV:   1    -0.612482093414E+02   -0.57978E+00   -0.13956E+02   384   0.784E+01    0.497E+00
DAV:   2    -0.608413298924E+02    0.40688E+00   -0.41159E+00   512   0.137E+01    0.258E+00
DAV:   3    -0.606495903012E+02    0.19174E+00   -0.71663E-01   496   0.534E+00    0.102E+00
DAV:   4    -0.606385387365E+02    0.11052E-01   -0.66679E-02   488   0.164E+00    0.491E-01
DAV:   5    -0.606373260778E+02    0.12127E-02   -0.98325E-03   512   0.587E-01    0.152E-01
DAV:   6    -0.606381273674E+02   -0.80129E-03   -0.19274E-03   552   0.290E-01    0.546E-02
DAV:   7    -0.606389869400E+02   -0.85957E-03   -0.67366E-04   512   0.140E-01    0.341E-02
DAV:   8    -0.606397893522E+02   -0.80241E-03   -0.41703E-04   448   0.872E-02    0.174E-02
DAV:   9    -0.606403015486E+02   -0.51220E-03   -0.45375E-04   440   0.744E-02    0.142E-02
DAV:  10    -0.606403997325E+02   -0.98184E-04   -0.77986E-05   384   0.338E-02
  40 F= -.60640400E+02 E0= -.60638582E+02  d E =-.865631E-01
 curvature:   4.51 expect dE= 0.557E+01 dE for cont linesearch  0.797E-01
 ZBRENT: bracketing found
 ZBRENT: interpolating
 opt :   0.4306  next Energy=   -60.685955 (dE=-0.132E+00)
 bond charge predicted
       N       E                     dE             d eps       ncg     rms          rms(c)
DAV:   1    -0.609188943430E+02   -0.27859E+00   -0.56641E+01   384   0.521E+01    0.283E+00
DAV:   2    -0.607836362019E+02    0.13526E+00   -0.15281E+00   496   0.829E+00    0.156E+00
DAV:   3    -0.606905020313E+02    0.93134E-01   -0.40077E-01   512   0.347E+00    0.447E-01
DAV:   4    -0.606871403372E+02    0.33617E-02   -0.25018E-02   496   0.106E+00    0.253E-01
DAV:   5    -0.606854622784E+02    0.16781E-02   -0.59845E-03   512   0.432E-01    0.848E-02
DAV:   6    -0.606851595290E+02    0.30275E-03   -0.77808E-04   512   0.182E-01    0.375E-02
DAV:   7    -0.606851577560E+02    0.17730E-05   -0.16035E-04   384   0.728E-02
  41 F= -.60685158E+02 E0= -.60684135E+02  d E =-.131321E+00
 curvature:  -0.99 expect dE=-0.491E+00 dE for cont linesearch -0.672E-04
 trial: gam= 0.61374 g(F)=  0.474E+00 g(S)=  0.246E-01 ort =-0.229E-01 (trialstep = 0.141E+00)
 search vector abs. value=  0.336E+01
 bond charge predicted
       N       E                     dE             d eps       ncg     rms          rms(c)
DAV:   1    -0.607731422718E+02   -0.87983E-01   -0.69524E+00   384   0.167E+01    0.962E-01
DAV:   2    -0.607570418296E+02    0.16100E-01   -0.15692E-01   528   0.256E+00    0.537E-01
DAV:   3    -0.607483539878E+02    0.86878E-02   -0.36544E-02   488   0.120E+00    0.151E-01
DAV:   4    -0.607480794307E+02    0.27456E-03   -0.21043E-03   512   0.304E-01    0.783E-02
DAV:   5    -0.607480670162E+02    0.12415E-04   -0.45349E-04   464   0.124E-01
  42 F= -.60748067E+02 E0= -.60747367E+02  d E =-.629093E-01
 trial-energy change:   -0.062909  1 .order   -0.061696   -0.068332   -0.055061
 step:   0.3780(harm=  0.7263)  dis= 0.06807  next Energy=   -60.800065 (dE=-0.115E+00)
 bond charge predicted
       N       E                     dE             d eps       ncg     rms          rms(c)
DAV:   1    -0.608961826550E+02   -0.14810E+00   -0.19736E+01   384   0.281E+01    0.166E+00
DAV:   2    -0.608433654730E+02    0.52817E-01   -0.45082E-01   512   0.440E+00    0.912E-01
DAV:   3    -0.608171752241E+02    0.26190E-01   -0.10186E-01   496   0.202E+00    0.264E-01
DAV:   4    -0.608167390295E+02    0.43619E-03   -0.59437E-03   496   0.510E-01    0.135E-01
DAV:   5    -0.608171224020E+02   -0.38337E-03   -0.13210E-03   512   0.208E-01    0.463E-02
DAV:   6    -0.608174856374E+02   -0.36324E-03   -0.22792E-04   352   0.971E-02    0.211E-02
DAV:   7    -0.608179292602E+02   -0.44362E-03   -0.14854E-04   336   0.636E-02    0.123E-02
DAV:   8    -0.608182737694E+02   -0.34451E-03   -0.95595E-05   368   0.488E-02    0.603E-03
DAV:   9    -0.608185141469E+02   -0.24038E-03   -0.12152E-04   368   0.392E-02    0.535E-03
DAV:  10    -0.608185660501E+02   -0.51903E-04   -0.25803E-05   384   0.255E-02
  43 F= -.60818566E+02 E0= -.60818147E+02  d E =-.133408E+00
 curvature:  -1.63 expect dE=-0.570E+00 dE for cont linesearch -0.193E-01
 ZBRENT: increasing intervall
 opt :   0.8520  next Energy=   -60.822861 (dE=-0.138E+00)
 bond charge predicted
       N       E                     dE             d eps       ncg     rms          rms(c)
DAV:   1    -0.611291863452E+02   -0.31067E+00   -0.81029E+01   384   0.582E+01    0.354E+00
DAV:   2    -0.609182900950E+02    0.21090E+00   -0.21623E+00   496   0.963E+00    0.185E+00
DAV:   3    -0.608179401541E+02    0.10035E+00   -0.39074E-01   504   0.395E+00    0.590E-01
DAV:   4    -0.608141791911E+02    0.37610E-02   -0.24616E-02   520   0.103E+00    0.286E-01
DAV:   5    -0.608142267717E+02   -0.47581E-04   -0.46360E-03   528   0.396E-01    0.940E-02
DAV:   6    -0.608148214252E+02   -0.59465E-03   -0.84520E-04   496   0.184E-01    0.391E-02
DAV:   7    -0.608154814395E+02   -0.66001E-03   -0.32739E-04   432   0.931E-02    0.228E-02
DAV:   8    -0.608160820374E+02   -0.60060E-03   -0.26836E-04   432   0.751E-02    0.117E-02
DAV:   9    -0.608164314376E+02   -0.34940E-03   -0.25674E-04   400   0.567E-02    0.104E-02
DAV:  10    -0.608165053065E+02   -0.73869E-04   -0.61750E-05   384   0.326E-02
  44 F= -.60816505E+02 E0= -.60816284E+02  d E =-.131348E+00
 curvature:  -0.36 expect dE=-0.589E+00 dE for cont linesearch -0.499E-02
 ZBRENT: bracketing found
 ZBRENT: interpolating
 opt :   0.6061  next Energy=   -60.841339 (dE=-0.156E+00)
 bond charge predicted
       N       E                     dE             d eps       ncg     rms          rms(c)
DAV:   1    -0.609223979315E+02   -0.10597E+00   -0.22736E+01   384   0.321E+01    0.175E+00
DAV:   2    -0.608738860406E+02    0.48512E-01   -0.58319E-01   496   0.486E+00    0.945E-01
DAV:   3    -0.608425770955E+02    0.31309E-01   -0.13205E-01   512   0.207E+00    0.263E-01
DAV:   4    -0.608413862699E+02    0.11908E-02   -0.70283E-03   496   0.594E-01    0.140E-01
DAV:   5    -0.608408267316E+02    0.55954E-03   -0.16927E-03   512   0.239E-01    0.480E-02
DAV:   6    -0.608407894262E+02    0.37305E-04   -0.20774E-04   384   0.101E-01
  45 F= -.60840789E+02 E0= -.60840496E+02  d E =-.155632E+00
 curvature:  -1.65 expect dE=-0.120E+01 dE for cont linesearch -0.716E-05
 trial: gam= 1.45289 g(F)=  0.718E+00 g(S)=  0.942E-02 ort =-0.382E-02 (trialstep = 0.101E+00)
 search vector abs. value=  0.780E+01
 bond charge predicted
       N       E                     dE             d eps       ncg     rms          rms(c)
DAV:   1    -0.609310152082E+02   -0.90188E-01   -0.84777E+00   384   0.185E+01    0.101E+00
DAV:   2    -0.609148547951E+02    0.16160E-01   -0.18536E-01   512   0.284E+00    0.571E-01
DAV:   3    -0.609051281492E+02    0.97266E-02   -0.40319E-02   496   0.127E+00    0.159E-01
DAV:   4    -0.609047294084E+02    0.39874E-03   -0.23496E-03   496   0.329E-01    0.826E-02
DAV:   5    -0.609046360558E+02    0.93353E-04   -0.57451E-04   512   0.134E-01
  46 F= -.60904636E+02 E0= -.60904501E+02  d E =-.638466E-01
 trial-energy change:   -0.063847  1 .order   -0.063249   -0.072725   -0.053774
 step:   0.2865(harm=  0.3865)  dis= 0.08119  next Energy=   -60.957991 (dE=-0.117E+00)
 bond charge predicted
       N       E                     dE             d eps       ncg     rms          rms(c)
DAV:   1    -0.610666497255E+02   -0.16192E+00   -0.29075E+01   384   0.343E+01    0.194E+00
DAV:   2    -0.610010539881E+02    0.65596E-01   -0.65652E-01   512   0.537E+00    0.106E+00
DAV:   3    -0.609665326437E+02    0.34521E-01   -0.13424E-01   512   0.234E+00    0.309E-01
DAV:   4    -0.609657348616E+02    0.79778E-03   -0.78036E-03   504   0.600E-01    0.158E-01
DAV:   5    -0.609661152444E+02   -0.38038E-03   -0.19824E-03   528   0.247E-01    0.578E-02
DAV:   6    -0.609664916425E+02   -0.37640E-03   -0.36429E-04   424   0.117E-01    0.265E-02
DAV:   7    -0.609669879496E+02   -0.49631E-03   -0.18643E-04   368   0.735E-02    0.147E-02
DAV:   8    -0.609673900471E+02   -0.40210E-03   -0.13662E-04   360   0.542E-02    0.773E-03
DAV:   9    -0.609676447900E+02   -0.25474E-03   -0.16563E-04   384   0.468E-02    0.619E-03
DAV:  10    -0.609676914395E+02   -0.46650E-04   -0.31185E-05   384   0.282E-02
  47 F= -.60967691E+02 E0= -.60967660E+02  d E =-.126902E+00
 curvature:  -1.83 expect dE=-0.667E+00 dE for cont linesearch -0.488E-02
 ZBRENT: extrapolating
 opt :   0.3552  next Energy=   -60.972647 (dE=-0.132E+00)
 bond charge predicted
       N       E                     dE             d eps       ncg     rms          rms(c)
DAV:   1    -0.609866320588E+02   -0.18987E-01   -0.40209E+00   384   0.128E+01    0.712E-01
DAV:   2    -0.609777782285E+02    0.88538E-02   -0.89499E-02   464   0.194E+00    0.399E-01
DAV:   3    -0.609724618732E+02    0.53164E-02   -0.20381E-02   488   0.883E-01    0.110E-01
DAV:   4    -0.609723184957E+02    0.14338E-03   -0.11528E-03   512   0.230E-01    0.576E-02
DAV:   5    -0.609723211656E+02   -0.26700E-05   -0.24029E-04   400   0.931E-02
  48 F= -.60972321E+02 E0= -.60972304E+02  d E =-.131532E+00
 curvature:  -1.86 expect dE=-0.994E+00 dE for cont linesearch -0.538E-06
 trial: gam= 0.75937 g(F)=  0.485E+00 g(S)=  0.498E-01 ort =-0.150E-02 (trialstep = 0.152E+00)
 search vector abs. value=  0.503E+01
 bond charge predicted
       N       E                     dE             d eps       ncg     rms          rms(c)
DAV:   1    -0.610901807344E+02   -0.11786E+00   -0.12793E+01   384   0.226E+01    0.126E+00
DAV:   2    -0.610570885364E+02    0.33092E-01   -0.25903E-01   496   0.332E+00    0.682E-01
DAV:   3    -0.610401622275E+02    0.16926E-01   -0.62185E-02   496   0.150E+00    0.196E-01
DAV:   4    -0.610400852329E+02    0.76995E-04   -0.33677E-03   496   0.385E-01    0.101E-01
DAV:   5    -0.610403174975E+02   -0.23226E-03   -0.61849E-04   472   0.143E-01    0.320E-02
DAV:   6    -0.610405794029E+02   -0.26191E-03   -0.94117E-05   352   0.588E-02    0.151E-02
DAV:   7    -0.610408948024E+02   -0.31540E-03   -0.11023E-04   352   0.478E-02    0.103E-02
DAV:   8    -0.610411288340E+02   -0.23403E-03   -0.78341E-05   352   0.359E-02    0.507E-03
DAV:   9    -0.610412413429E+02   -0.11251E-03   -0.72918E-05   368   0.297E-02    0.422E-03
DAV:  10    -0.610412606001E+02   -0.19257E-04   -0.13985E-05   384   0.180E-02
  49 F= -.61041261E+02 E0= -.61041241E+02  d E =-.689394E-01
 trial-energy change:   -0.068939  1 .order   -0.068900   -0.080842   -0.056958
 step:   0.5132(harm=  0.5132)  dis= 0.11910  next Energy=   -61.109136 (dE=-0.137E+00)
 bond charge predicted
       N       E                     dE             d eps       ncg     rms          rms(c)
DAV:   1    -0.613760329860E+02   -0.33479E+00   -0.74370E+01   384   0.559E+01    0.321E+00
DAV:   2    -0.612003651266E+02    0.17567E+00   -0.18396E+00   512   0.862E+00    0.164E+00
DAV:   3    -0.611125486981E+02    0.87816E-01   -0.32636E-01   560   0.346E+00    0.537E-01
DAV:   4    -0.611100958595E+02    0.24528E-02   -0.18026E-02   512   0.813E-01    0.261E-01
DAV:   5    -0.611102757691E+02   -0.17991E-03   -0.28997E-03   488   0.310E-01    0.771E-02
DAV:   6    -0.611109223313E+02   -0.64656E-03   -0.39631E-04   392   0.118E-01    0.332E-02
DAV:   7    -0.611116366313E+02   -0.71430E-03   -0.35717E-04   400   0.912E-02    0.216E-02
DAV:   8    -0.611121269527E+02   -0.49032E-03   -0.22037E-04   384   0.635E-02    0.105E-02
DAV:   9    -0.611123597746E+02   -0.23282E-03   -0.24695E-04   400   0.545E-02    0.958E-03
DAV:  10    -0.611123841662E+02   -0.24392E-04   -0.38106E-05   368   0.316E-02
  50 F= -.61112384E+02 E0= -.61112356E+02  d E =-.140063E+00
 curvature:  -2.42 expect dE=-0.830E+00 dE for cont linesearch -0.212E-03
 trial: gam= 0.51831 g(F)=  0.293E+00 g(S)=  0.500E-01 ort = 0.210E-01 (trialstep = 0.224E+00)
 search vector abs. value=  0.172E+01
 bond charge predicted
       N       E                     dE             d eps       ncg     rms          rms(c)
DAV:   1    -0.611879959309E+02   -0.75636E-01   -0.96625E+00   384   0.204E+01    0.110E+00
DAV:   2    -0.611702309671E+02    0.17765E-01   -0.21458E-01   504   0.312E+00    0.630E-01
DAV:   3    -0.611577981602E+02    0.12433E-01   -0.48300E-02   480   0.140E+00    0.163E-01
DAV:   4    -0.611575785760E+02    0.21958E-03   -0.33882E-03   488   0.391E-01    0.879E-02
DAV:   5    -0.611575963514E+02   -0.17775E-04   -0.64588E-04   464   0.147E-01
  51 F= -.61157596E+02 E0= -.61157510E+02  d E =-.452122E-01
 trial-energy change:   -0.045212  1 .order   -0.046284   -0.079205   -0.013364
 step:   0.2756(harm=  0.2694)  dis= 0.03538  next Energy=   -61.159125 (dE=-0.467E-01)
 bond charge predicted
       N       E                     dE             d eps       ncg     rms          rms(c)
DAV:   1    -0.611604767071E+02   -0.28981E-02   -0.51737E-01   384   0.478E+00    0.253E-01
DAV:   2    -0.611594638029E+02    0.10129E-02   -0.11836E-02   512   0.709E-01    0.145E-01
DAV:   3    -0.611587807597E+02    0.68304E-03   -0.26114E-03   496   0.311E-01    0.394E-02
DAV:   4    -0.611588365219E+02   -0.55762E-04   -0.16472E-04   336   0.887E-02
  52 F= -.61158837E+02 E0= -.61158716E+02  d E =-.464524E-01
 curvature:  -0.64 expect dE=-0.908E-01 dE for cont linesearch -0.624E-04
 trial: gam= 0.48478 g(F)=  0.120E+00 g(S)=  0.214E-01 ort =-0.129E-01 (trialstep = 0.234E+00)
 search vector abs. value=  0.532E+00
 bond charge predicted
       N       E                     dE             d eps       ncg     rms          rms(c)
DAV:   1    -0.611896410026E+02   -0.30860E-01   -0.29567E+00   384   0.117E+01    0.658E-01
DAV:   2    -0.611840867450E+02    0.55543E-02   -0.69472E-02   496   0.169E+00    0.372E-01
DAV:   3    -0.611805005480E+02    0.35862E-02   -0.14120E-02   480   0.775E-01    0.889E-02
DAV:   4    -0.611804687273E+02    0.31821E-04   -0.12124E-03   448   0.230E-01    0.462E-02
DAV:   5    -0.611805323545E+02   -0.63627E-04   -0.13648E-04   328   0.745E-02
  53 F= -.61180532E+02 E0= -.61180402E+02  d E =-.216958E-01
 trial-energy change:   -0.021696  1 .order   -0.021716   -0.031695   -0.011738
 step:   0.3720(harm=  0.3720)  dis= 0.02445  next Energy=   -61.184004 (dE=-0.252E-01)
 bond charge predicted
       N       E                     dE             d eps       ncg     rms          rms(c)
DAV:   1    -0.611872557024E+02   -0.67870E-02   -0.10309E+00   384   0.693E+00    0.388E-01
DAV:   2    -0.611853257569E+02    0.19299E-02   -0.24354E-02   512   0.100E+00    0.219E-01
DAV:   3    -0.611840558034E+02    0.12700E-02   -0.49325E-03   488   0.455E-01    0.522E-02
DAV:   4    -0.611840747664E+02   -0.18963E-04   -0.39238E-04   400   0.133E-01
  54 F= -.61184075E+02 E0= -.61183939E+02  d E =-.252382E-01
 curvature:  -0.73 expect dE=-0.826E-01 dE for cont linesearch -0.148E-07
 trial: gam= 0.70440 g(F)=  0.961E-01 g(S)=  0.168E-01 ort =-0.104E-03 (trialstep = 0.262E+00)
 search vector abs. value=  0.377E+00
 bond charge predicted
       N       E                     dE             d eps       ncg     rms          rms(c)
DAV:   1    -0.612111744542E+02   -0.27119E-01   -0.27078E+00   384   0.112E+01    0.591E-01
DAV:   2    -0.612051823987E+02    0.59921E-02   -0.58085E-02   528   0.162E+00    0.327E-01
DAV:   3    -0.612019863634E+02    0.31960E-02   -0.13451E-02   512   0.692E-01    0.989E-02
DAV:   4    -0.612020025766E+02   -0.16213E-04   -0.13662E-03   464   0.230E-01    0.514E-02
DAV:   5    -0.612020653873E+02   -0.62811E-04   -0.13500E-04   336   0.773E-02
  55 F= -.61202065E+02 E0= -.61201985E+02  d E =-.179906E-01
 trial-energy change:   -0.017991  1 .order   -0.018265   -0.029540   -0.006990
 step:   0.3430(harm=  0.3430)  dis= 0.01571  next Energy=   -61.203423 (dE=-0.193E-01)
 bond charge predicted
       N       E                     dE             d eps       ncg     rms          rms(c)
DAV:   1    -0.612040145784E+02   -0.20120E-02   -0.26081E-01   384   0.351E+00    0.180E-01
DAV:   2    -0.612034268178E+02    0.58776E-03   -0.55620E-03   512   0.500E-01    0.101E-01
DAV:   3    -0.612031309258E+02    0.29589E-03   -0.13869E-03   496   0.218E-01    0.304E-02
DAV:   4    -0.612031690554E+02   -0.38130E-04   -0.13013E-04   336   0.729E-02
  56 F= -.61203169E+02 E0= -.61203101E+02  d E =-.190943E-01
 curvature:  -0.57 expect dE=-0.311E-01 dE for cont linesearch -0.212E-05
 trial: gam= 0.51619 g(F)=  0.438E-01 g(S)=  0.105E-01 ort =-0.118E-02 (trialstep = 0.278E+00)
 search vector abs. value=  0.154E+00
 bond charge predicted
       N       E                     dE             d eps       ncg     rms          rms(c)
DAV:   1    -0.612168508619E+02   -0.13720E-01   -0.10425E+00   384   0.711E+00    0.375E-01
DAV:   2    -0.612150101885E+02    0.18407E-02   -0.22161E-02   496   0.106E+00    0.212E-01
DAV:   3    -0.612137230399E+02    0.12871E-02   -0.50174E-03   512   0.431E-01    0.662E-02
DAV:   4    -0.612137291827E+02   -0.61428E-05   -0.55128E-04   480   0.158E-01
  57 F= -.61213729E+02 E0= -.61213658E+02  d E =-.105601E-01
 trial-energy change:   -0.010560  1 .order   -0.010904   -0.014932   -0.006876
 step:   0.5153(harm=  0.5153)  dis= 0.01041  next Energy=   -61.217007 (dE=-0.138E-01)
 bond charge predicted
       N       E                     dE             d eps       ncg     rms          rms(c)
DAV:   1    -0.612187064385E+02   -0.49834E-02   -0.75962E-01   384   0.607E+00    0.321E-01
DAV:   2    -0.612173218299E+02    0.13846E-02   -0.16256E-02   496   0.908E-01    0.183E-01
DAV:   3    -0.612163714585E+02    0.95037E-03   -0.37631E-03   512   0.373E-01    0.582E-02
DAV:   4    -0.612163946558E+02   -0.23197E-04   -0.42513E-04   464   0.139E-01
  58 F= -.61216395E+02 E0= -.61216322E+02  d E =-.132256E-01
 curvature:  -0.74 expect dE=-0.552E-01 dE for cont linesearch -0.898E-08
 trial: gam= 1.36305 g(F)=  0.668E-01 g(S)=  0.809E-02 ort = 0.433E-04 (trialstep = 0.139E+00)
 search vector abs. value=  0.360E+00
 bond charge predicted
       N       E                     dE             d eps       ncg     rms          rms(c)
DAV:   1    -0.612261197224E+02   -0.97483E-02   -0.56874E-01   384   0.533E+00    0.279E-01
DAV:   2    -0.612252545515E+02    0.86517E-03   -0.11433E-02   512   0.764E-01    0.159E-01
DAV:   3    -0.612246569437E+02    0.59761E-03   -0.23499E-03   480   0.299E-01    0.498E-02
DAV:   4    -0.612246751993E+02   -0.18256E-04   -0.28058E-04   384   0.114E-01
  59 F= -.61224675E+02 E0= -.61224609E+02  d E =-.828054E-02
 trial-energy change:   -0.008281  1 .order   -0.008380   -0.010400   -0.006360
 step:   0.3571(harm=  0.3571)  dis= 0.01124  next Energy=   -61.229780 (dE=-0.134E-01)
 bond charge predicted
       N       E                     dE             d eps       ncg     rms          rms(c)
DAV:   1    -0.612330801715E+02   -0.84232E-02   -0.14094E+00   384   0.839E+00    0.438E-01
DAV:   2    -0.612310147858E+02    0.20654E-02   -0.28157E-02   496   0.120E+00    0.249E-01
DAV:   3    -0.612295521752E+02    0.14626E-02   -0.56804E-03   496   0.469E-01    0.775E-02
DAV:   4    -0.612295477826E+02    0.43927E-05   -0.70804E-04   448   0.178E-01
  60 F= -.61229548E+02 E0= -.61229492E+02  d E =-.131531E-01
 curvature:  -0.86 expect dE=-0.495E-01 dE for cont linesearch -0.831E-05
 trial: gam= 0.73622 g(F)=  0.467E-01 g(S)=  0.111E-01 ort = 0.187E-02 (trialstep = 0.182E+00)
 search vector abs. value=  0.256E+00
 bond charge predicted
       N       E                     dE             d eps       ncg     rms          rms(c)
DAV:   1    -0.612399264139E+02   -0.10374E-01   -0.62785E-01   384   0.568E+00    0.304E-01
DAV:   2    -0.612390696445E+02    0.85677E-03   -0.12289E-02   528   0.769E-01    0.171E-01
DAV:   3    -0.612384068824E+02    0.66276E-03   -0.19582E-03   488   0.284E-01    0.471E-02
DAV:   4    -0.612384520754E+02   -0.45193E-04   -0.24400E-04   416   0.997E-02
  61 F= -.61238452E+02 E0= -.61238410E+02  d E =-.890429E-02
 trial-energy change:   -0.008904  1 .order   -0.009066   -0.010783   -0.007348
 step:   0.5726(harm=  0.5726)  dis= 0.01872  next Energy=   -61.246475 (dE=-0.169E-01)
 bond charge predicted
       N       E                     dE             d eps       ncg     rms          rms(c)
DAV:   1    -0.612529503556E+02   -0.14543E-01   -0.28775E+00   384   0.121E+01    0.654E-01
DAV:   2    -0.612491745875E+02    0.37758E-02   -0.56574E-02   512   0.164E+00    0.364E-01
DAV:   3    -0.612461521901E+02    0.30224E-02   -0.85827E-03   488   0.631E-01    0.102E-01
DAV:   4    -0.612461918462E+02   -0.39656E-04   -0.11479E-03   472   0.227E-01    0.518E-02
DAV:   5    -0.612462820629E+02   -0.90217E-04   -0.11793E-04   320   0.712E-02
  62 F= -.61246282E+02 E0= -.61246259E+02  d E =-.167343E-01
 curvature:  -1.24 expect dE=-0.869E-01 dE for cont linesearch -0.985E-05
 trial: gam= 1.19040 g(F)=  0.655E-01 g(S)=  0.463E-02 ort = 0.143E-02 (trialstep = 0.153E+00)
 search vector abs. value=  0.436E+00
 bond charge predicted
       N       E                     dE             d eps       ncg     rms          rms(c)
DAV:   1    -0.612564787245E+02   -0.10287E-01   -0.77319E-01   384   0.627E+00    0.314E-01
DAV:   2    -0.612557186821E+02    0.76004E-03   -0.15027E-02   528   0.835E-01    0.175E-01
DAV:   3    -0.612549839442E+02    0.73474E-03   -0.20329E-03   512   0.290E-01    0.476E-02
DAV:   4    -0.612550319898E+02   -0.48046E-04   -0.26131E-04   448   0.999E-02
  63 F= -.61255032E+02 E0= -.61255006E+02  d E =-.874993E-02
 trial-energy change:   -0.008750  1 .order   -0.008809   -0.010980   -0.006638
 step:   0.3863(harm=  0.3863)  dis= 0.01704  next Energy=   -61.260166 (dE=-0.139E-01)
 bond charge predicted
       N       E                     dE             d eps       ncg     rms          rms(c)
DAV:   1    -0.612630853594E+02   -0.81014E-02   -0.18041E+00   384   0.957E+00    0.483E-01
DAV:   2    -0.612613984946E+02    0.16869E-02   -0.35033E-02   528   0.128E+00    0.270E-01
DAV:   3    -0.612596709403E+02    0.17276E-02   -0.45937E-03   512   0.448E-01    0.734E-02
DAV:   4    -0.612597233411E+02   -0.52401E-04   -0.60429E-04   480   0.153E-01
  64 F= -.61259723E+02 E0= -.61259693E+02  d E =-.134413E-01
 curvature:  -1.17 expect dE=-0.706E-01 dE for cont linesearch -0.399E-08
 trial: gam= 0.91321 g(F)=  0.535E-01 g(S)=  0.668E-02 ort = 0.385E-04 (trialstep = 0.199E+00)
 search vector abs. value=  0.424E+00
 bond charge predicted
       N       E                     dE             d eps       ncg     rms          rms(c)
DAV:   1    -0.612701772370E+02   -0.10506E-01   -0.12790E+00   384   0.799E+00    0.397E-01
DAV:   2    -0.612690898520E+02    0.10874E-02   -0.24535E-02   528   0.109E+00    0.227E-01
DAV:   3    -0.612678806579E+02    0.12092E-02   -0.32413E-03   512   0.371E-01    0.613E-02
DAV:   4    -0.612679377984E+02   -0.57140E-04   -0.44115E-04   464   0.129E-01
  65 F= -.61267938E+02 E0= -.61267901E+02  d E =-.821446E-02
 trial-energy change:   -0.008214  1 .order   -0.008542   -0.012020   -0.005064
 step:   0.3447(harm=  0.3447)  dis= 0.01458  next Energy=   -61.270109 (dE=-0.104E-01)
 bond charge predicted
       N       E                     dE             d eps       ncg     rms          rms(c)
DAV:   1    -0.612708662924E+02   -0.29856E-02   -0.67933E-01   384   0.583E+00    0.289E-01
DAV:   2    -0.612702690409E+02    0.59725E-03   -0.13125E-02   528   0.786E-01    0.165E-01
DAV:   3    -0.612696291149E+02    0.63993E-03   -0.17777E-03   512   0.271E-01    0.453E-02
DAV:   4    -0.612696740730E+02   -0.44958E-04   -0.23570E-04   432   0.951E-02
  66 F= -.61269674E+02 E0= -.61269632E+02  d E =-.995073E-02
 curvature:  -1.21 expect dE=-0.489E-01 dE for cont linesearch -0.853E-11
 trial: gam= 0.66029 g(F)=  0.341E-01 g(S)=  0.627E-02 ort = 0.173E-05 (trialstep = 0.229E+00)
 search vector abs. value=  0.225E+00
 bond charge predicted
       N       E                     dE             d eps       ncg     rms          rms(c)
DAV:   1    -0.612784902146E+02   -0.88611E-02   -0.88802E-01   384   0.662E+00    0.349E-01
DAV:   2    -0.612773930117E+02    0.10972E-02   -0.18066E-02   528   0.943E-01    0.198E-01
DAV:   3    -0.612764614811E+02    0.93153E-03   -0.22956E-03   512   0.301E-01    0.693E-02
DAV:   4    -0.612764804131E+02   -0.18932E-04   -0.28212E-04   416   0.107E-01
  67 F= -.61276480E+02 E0= -.61276442E+02  d E =-.680634E-02
 trial-energy change:   -0.006806  1 .order   -0.007034   -0.009225   -0.004843
 step:   0.4811(harm=  0.4811)  dis= 0.01398  next Energy=   -61.279384 (dE=-0.971E-02)
 bond charge predicted
       N       E                     dE             d eps       ncg     rms          rms(c)
DAV:   1    -0.612813167485E+02   -0.48553E-02   -0.10837E+00   384   0.731E+00    0.385E-01
DAV:   2    -0.612799718276E+02    0.13449E-02   -0.22154E-02   528   0.105E+00    0.218E-01
DAV:   3    -0.612788358546E+02    0.11360E-02   -0.28519E-03   512   0.336E-01    0.775E-02
DAV:   4    -0.612788514490E+02   -0.15594E-04   -0.35666E-04   432   0.120E-01
  68 F= -.61278851E+02 E0= -.61278816E+02  d E =-.917738E-02
 curvature:  -1.34 expect dE=-0.522E-01 dE for cont linesearch -0.425E-08
 trial: gam= 0.97908 g(F)=  0.317E-01 g(S)=  0.719E-02 ort = 0.267E-04 (trialstep = 0.247E+00)
 search vector abs. value=  0.255E+00
 bond charge predicted
       N       E                     dE             d eps       ncg     rms          rms(c)
DAV:   1    -0.612879698180E+02   -0.91340E-02   -0.11601E+00   384   0.754E+00    0.406E-01
DAV:   2    -0.612867457796E+02    0.12240E-02   -0.25072E-02   512   0.109E+00    0.230E-01
DAV:   3    -0.612854661611E+02    0.12796E-02   -0.32559E-03   512   0.369E-01    0.714E-02
DAV:   4    -0.612854957346E+02   -0.29573E-04   -0.38576E-04   448   0.127E-01
  69 F= -.61285496E+02 E0= -.61285463E+02  d E =-.664429E-02
 trial-energy change:   -0.006644  1 .order   -0.006957   -0.009599   -0.004316
 step:   0.4480(harm=  0.4480)  dis= 0.01354  next Energy=   -61.287571 (dE=-0.872E-02)
 bond charge predicted
       N       E                     dE             d eps       ncg     rms          rms(c)
DAV:   1    -0.612887188366E+02   -0.32527E-02   -0.77536E-01   384   0.617E+00    0.331E-01
DAV:   2    -0.612878762306E+02    0.84261E-03   -0.16893E-02   528   0.887E-01    0.188E-01
DAV:   3    -0.612870111616E+02    0.86507E-03   -0.22429E-03   512   0.301E-01    0.587E-02
DAV:   4    -0.612870441788E+02   -0.33017E-04   -0.25524E-04   408   0.104E-01
  70 F= -.61287044E+02 E0= -.61287013E+02  d E =-.819273E-02
 curvature:  -1.47 expect dE=-0.739E-01 dE for cont linesearch -0.171E-05
 trial: gam= 1.26781 g(F)=  0.420E-01 g(S)=  0.839E-02 ort =-0.546E-03 (trialstep = 0.159E+00)
 search vector abs. value=  0.459E+00
 bond charge predicted
       N       E                     dE             d eps       ncg     rms          rms(c)
DAV:   1    -0.612950707738E+02   -0.80596E-02   -0.81398E-01   384   0.634E+00    0.363E-01
DAV:   2    -0.612939746465E+02    0.10961E-02   -0.17654E-02   512   0.914E-01    0.207E-01
DAV:   3    -0.612929894342E+02    0.98521E-03   -0.24638E-03   504   0.330E-01    0.534E-02
DAV:   4    -0.612930149613E+02   -0.25527E-04   -0.30266E-04   424   0.115E-01
  71 F= -.61293015E+02 E0= -.61292989E+02  d E =-.597078E-02
 trial-energy change:   -0.005971  1 .order   -0.006139   -0.007924   -0.004354
 step:   0.3538(harm=  0.3538)  dis= 0.01189  next Energy=   -61.295838 (dE=-0.879E-02)
 bond charge predicted
       N       E                     dE             d eps       ncg     rms          rms(c)
DAV:   1    -0.612985869633E+02   -0.55975E-02   -0.12102E+00   384   0.773E+00    0.444E-01
DAV:   2    -0.612969704737E+02    0.16165E-02   -0.26293E-02   512   0.110E+00    0.252E-01
DAV:   3    -0.612955020008E+02    0.14685E-02   -0.36841E-03   520   0.408E-01    0.655E-02
DAV:   4    -0.612955219683E+02   -0.19968E-04   -0.46007E-04   440   0.142E-01
  72 F= -.61295522E+02 E0= -.61295500E+02  d E =-.847779E-02
 curvature:  -1.63 expect dE=-0.360E-01 dE for cont linesearch -0.494E-05
 trial: gam= 0.38901 g(F)=  0.204E-01 g(S)=  0.166E-02 ort = 0.118E-02 (trialstep = 0.198E+00)
 search vector abs. value=  0.924E-01
 bond charge predicted
       N       E                     dE             d eps       ncg     rms          rms(c)
DAV:   1    -0.612992377507E+02   -0.37357E-02   -0.28269E-01   384   0.368E+00    0.198E-01
DAV:   2    -0.612990003738E+02    0.23738E-03   -0.67255E-03   544   0.556E-01    0.116E-01
DAV:   3    -0.612986789302E+02    0.32144E-03   -0.84074E-04   472   0.185E-01    0.373E-02
DAV:   4    -0.612987124027E+02   -0.33472E-04   -0.93641E-05   328   0.663E-02
  73 F= -.61298712E+02 E0= -.61298694E+02  d E =-.319043E-02
 trial-energy change:   -0.003190  1 .order   -0.003189   -0.004466   -0.001911
 step:   0.3467(harm=  0.3467)  dis= 0.00543  next Energy=   -61.299426 (dE=-0.390E-02)
 bond charge predicted
       N       E                     dE             d eps       ncg     rms          rms(c)
DAV:   1    -0.612997709529E+02   -0.10920E-02   -0.15858E-01   384   0.276E+00    0.147E-01
DAV:   2    -0.612996456485E+02    0.12530E-03   -0.37655E-03   544   0.415E-01    0.859E-02
DAV:   3    -0.612994666963E+02    0.17895E-03   -0.44486E-04   400   0.137E-01    0.271E-02
DAV:   4    -0.612994855525E+02   -0.18856E-04   -0.65352E-05   344   0.612E-02
  74 F= -.61299486E+02 E0= -.61299469E+02  d E =-.396358E-02
 curvature:  -0.71 expect dE=-0.109E-01 dE for cont linesearch -0.928E-07
 trial: gam= 0.71611 g(F)=  0.146E-01 g(S)=  0.692E-03 ort = 0.110E-03 (trialstep = 0.228E+00)
 search vector abs. value=  0.628E-01
 bond charge predicted
       N       E                     dE             d eps       ncg     rms          rms(c)
DAV:   1    -0.613024734573E+02   -0.30068E-02   -0.26838E-01   384   0.354E+00    0.176E-01
DAV:   2    -0.613023938970E+02    0.79560E-04   -0.64370E-03   528   0.539E-01    0.102E-01
DAV:   3    -0.613021402579E+02    0.25364E-03   -0.61390E-04   504   0.158E-01    0.422E-02
DAV:   4    -0.613021363238E+02    0.39342E-05   -0.68754E-05   312   0.562E-02
  75 F= -.61302136E+02 E0= -.61302118E+02  d E =-.265077E-02
 trial-energy change:   -0.002651  1 .order   -0.002657   -0.003497   -0.001817
 step:   0.4745(harm=  0.4745)  dis= 0.00723  next Energy=   -61.303125 (dE=-0.364E-02)
 bond charge predicted
       N       E                     dE             d eps       ncg     rms          rms(c)
DAV:   1    -0.613034277295E+02   -0.12875E-02   -0.31304E-01   384   0.382E+00    0.191E-01
DAV:   2    -0.613033343028E+02    0.93427E-04   -0.74759E-03   544   0.580E-01    0.110E-01
DAV:   3    -0.613030372208E+02    0.29708E-03   -0.70579E-04   504   0.169E-01    0.454E-02
DAV:   4    -0.613030307315E+02    0.64892E-05   -0.78915E-05   320   0.604E-02
  76 F= -.61303031E+02 E0= -.61303009E+02  d E =-.354518E-02
 curvature:  -0.97 expect dE=-0.174E-01 dE for cont linesearch -0.117E-05
 trial: gam= 1.23393 g(F)=  0.154E-01 g(S)=  0.243E-02 ort =-0.276E-03 (trialstep = 0.154E+00)
 search vector abs. value=  0.113E+00
 bond charge predicted
       N       E                     dE             d eps       ncg     rms          rms(c)
DAV:   1    -0.613054486535E+02   -0.24114E-02   -0.21898E-01   384   0.314E+00    0.160E-01
DAV:   2    -0.613054046154E+02    0.44038E-04   -0.50275E-03   520   0.471E-01    0.904E-02
DAV:   3    -0.613052097228E+02    0.19489E-03   -0.49144E-04   480   0.146E-01    0.321E-02
DAV:   4    -0.613052120896E+02   -0.23667E-05   -0.63119E-05   304   0.559E-02
  77 F= -.61305212E+02 E0= -.61305189E+02  d E =-.218136E-02
 trial-energy change:   -0.002181  1 .order   -0.002191   -0.002706   -0.001676
 step:   0.4056(harm=  0.4056)  dis= 0.01065  next Energy=   -61.306586 (dE=-0.356E-02)
 bond charge predicted
       N       E                     dE             d eps       ncg     rms          rms(c)
DAV:   1    -0.613071522037E+02   -0.19425E-02   -0.57959E-01   384   0.511E+00    0.262E-01
DAV:   2    -0.613070520805E+02    0.10012E-03   -0.13284E-02   496   0.767E-01    0.147E-01
DAV:   3    -0.613065391647E+02    0.51292E-03   -0.13349E-03   512   0.238E-01    0.524E-02
DAV:   4    -0.613065197633E+02    0.19401E-04   -0.14058E-04   336   0.826E-02
  78 F= -.61306520E+02 E0= -.61306494E+02  d E =-.348903E-02
 curvature:  -1.30 expect dE=-0.226E-01 dE for cont linesearch -0.407E-07
 trial: gam= 0.89891 g(F)=  0.156E-01 g(S)=  0.171E-02 ort = 0.593E-04 (trialstep = 0.205E+00)
 search vector abs. value=  0.109E+00
 bond charge predicted
       N       E                     dE             d eps       ncg     rms          rms(c)
DAV:   1    -0.613101033284E+02   -0.35642E-02   -0.39276E-01   384   0.403E+00    0.214E-01
DAV:   2    -0.613099446060E+02    0.15872E-03   -0.91596E-03   536   0.621E-01    0.120E-01
DAV:   3    -0.613095596962E+02    0.38491E-03   -0.10378E-03   512   0.203E-01    0.397E-02
DAV:   4    -0.613095640396E+02   -0.43434E-05   -0.88383E-05   320   0.672E-02
  79 F= -.61309564E+02 E0= -.61309543E+02  d E =-.304428E-02
 trial-energy change:   -0.003044  1 .order   -0.003061   -0.003555   -0.002567
 step:   0.7365(harm=  0.7365)  dis= 0.02298  next Energy=   -61.312918 (dE=-0.640E-02)
 bond charge predicted
       N       E                     dE             d eps       ncg     rms          rms(c)
DAV:   1    -0.613162182174E+02   -0.66585E-02   -0.26428E+00   384   0.104E+01    0.561E-01
DAV:   2    -0.613152900291E+02    0.92819E-03   -0.61867E-02   528   0.165E+00    0.314E-01
DAV:   3    -0.613127852282E+02    0.25048E-02   -0.69484E-03   544   0.539E-01    0.103E-01
DAV:   4    -0.613127080909E+02    0.77137E-04   -0.66628E-04   480   0.173E-01
  80 F= -.61312708E+02 E0= -.61312696E+02  d E =-.618833E-02
 curvature:  -2.30 expect dE=-0.706E-01 dE for cont linesearch -0.681E-05
 trial: gam= 1.82597 g(F)=  0.283E-01 g(S)=  0.239E-02 ort = 0.567E-03 (trialstep = 0.855E-01)
 search vector abs. value=  0.395E+00
 bond charge predicted
       N       E                     dE             d eps       ncg     rms          rms(c)
DAV:   1    -0.613155694742E+02   -0.27842E-02   -0.25616E-01   384   0.320E+00    0.171E-01
DAV:   2    -0.613154144939E+02    0.15498E-03   -0.60779E-03   512   0.511E-01    0.981E-02
DAV:   3    -0.613151811315E+02    0.23336E-03   -0.77903E-04   464   0.169E-01    0.333E-02
DAV:   4    -0.613152327292E+02   -0.51598E-04   -0.60610E-05   320   0.543E-02
  81 F= -.61315233E+02 E0= -.61315222E+02  d E =-.252464E-02
 ZBRENT: can't locate minimum, use default step
 trial-energy change:   -0.002525  1 .order   -0.002402   -0.002712   -0.002092
 step:   0.3421(harm=  0.3737)  dis= 0.02180  next Energy=   -61.318633 (dE=-0.592E-02)
 bond charge predicted
       N       E                     dE             d eps       ncg     rms          rms(c)
DAV:   1    -0.613217662465E+02   -0.65851E-02   -0.22918E+00   384   0.955E+00    0.512E-01
DAV:   2    -0.613206337776E+02    0.11325E-02   -0.53703E-02   496   0.156E+00    0.286E-01
DAV:   3    -0.613184362170E+02    0.21976E-02   -0.64244E-03   496   0.504E-01    0.964E-02
DAV:   4    -0.613183943036E+02    0.41913E-04   -0.52146E-04   448   0.155E-01
  82 F= -.61318394E+02 E0= -.61318385E+02  d E =-.568621E-02
 curvature:  -2.30 expect dE=-0.554E-01 dE for cont linesearch -0.604E-04
 trial: gam= 0.73586 g(F)=  0.234E-01 g(S)=  0.728E-03 ort = 0.322E-02 (trialstep = 0.137E+00)
 search vector abs. value=  0.243E+00
 bond charge predicted
       N       E                     dE             d eps       ncg     rms          rms(c)
DAV:   1    -0.613221095614E+02   -0.36733E-02   -0.39497E-01   384   0.388E+00    0.212E-01
DAV:   2    -0.613218509208E+02    0.25864E-03   -0.92455E-03   544   0.633E-01    0.120E-01
DAV:   3    -0.613214833946E+02    0.36753E-03   -0.13399E-03   496   0.222E-01    0.422E-02
DAV:   4    -0.613215167731E+02   -0.33379E-04   -0.96963E-05   304   0.709E-02
  83 F= -.61321517E+02 E0= -.61321507E+02  d E =-.312247E-02
 trial-energy change:   -0.003122  1 .order   -0.003081   -0.003626   -0.002535
 step:   0.4547(harm=  0.4547)  dis= 0.02392  next Energy=   -61.324419 (dE=-0.602E-02)
 bond charge predicted
       N       E                     dE             d eps       ncg     rms          rms(c)
DAV:   1    -0.613275438008E+02   -0.60604E-02   -0.21235E+00   384   0.897E+00    0.495E-01
DAV:   2    -0.613263422032E+02    0.12016E-02   -0.49042E-02   520   0.149E+00    0.276E-01
DAV:   3    -0.613243513151E+02    0.19909E-02   -0.68582E-03   496   0.514E-01    0.959E-02
[...]
DAV:   3    -0.613337562942E+02    0.10079E-02   -0.34887E-03   496   0.372E-01    0.561E-02
DAV:   4    -0.613337881731E+02   -0.31879E-04   -0.22257E-04   336   0.107E-01
  88 F= -.61333788E+02 E0= -.61333774E+02  d E =-.457892E-02
 curvature:  -2.33 expect dE=-0.549E-01 dE for cont linesearch -0.674E-06
 trial: gam= 1.20907 g(F)=  0.221E-01 g(S)=  0.143E-02 ort = 0.260E-03 (trialstep = 0.178E+00)
 search vector abs. value=  0.365E+00
 bond charge predicted
       N       E                     dE             d eps       ncg     rms          rms(c)
DAV:   1    -0.613391317430E+02   -0.53754E-02   -0.10197E+00   384   0.616E+00    0.359E-01
DAV:   2    -0.613382603388E+02    0.87140E-03   -0.23339E-02   480   0.976E-01    0.208E-01
DAV:   3    -0.613370470778E+02    0.12133E-02   -0.46854E-03   496   0.441E-01    0.536E-02
DAV:   4    -0.613370663962E+02   -0.19318E-04   -0.35789E-04   384   0.135E-01
  89 F= -.61337066E+02 E0= -.61337052E+02  d E =-.327822E-02
 trial-energy change:   -0.003278  1 .order   -0.003299   -0.004235   -0.002363
 step:   0.4017(harm=  0.4017)  dis= 0.02702  next Energy=   -61.338579 (dE=-0.479E-02)
 bond charge predicted
       N       E                     dE             d eps       ncg     rms          rms(c)
DAV:   1    -0.613421459076E+02   -0.50988E-02   -0.16299E+00   384   0.779E+00    0.458E-01
DAV:   2    -0.613406485265E+02    0.14974E-02   -0.37315E-02   480   0.124E+00    0.266E-01
DAV:   3    -0.613386785916E+02    0.19699E-02   -0.77116E-03   488   0.573E-01    0.688E-02
DAV:   4    -0.613386941362E+02   -0.15545E-04   -0.61608E-04   448   0.176E-01
  90 F= -.61338694E+02 E0= -.61338680E+02  d E =-.490596E-02
 curvature:  -3.07 expect dE=-0.509E-01 dE for cont linesearch -0.893E-05
 trial: gam= 0.65362 g(F)=  0.110E-01 g(S)=  0.559E-02 ort = 0.103E-02 (trialstep = 0.222E+00)
 search vector abs. value=  0.174E+00
 bond charge predicted
       N       E                     dE             d eps       ncg     rms          rms(c)
DAV:   1    -0.613439812913E+02   -0.53027E-02   -0.78411E-01   384   0.543E+00    0.315E-01
DAV:   2    -0.613427930788E+02    0.11882E-02   -0.18544E-02   480   0.908E-01    0.178E-01
DAV:   3    -0.613418135028E+02    0.97958E-03   -0.37442E-03   504   0.360E-01    0.596E-02
DAV:   4    -0.613418413094E+02   -0.27807E-04   -0.25770E-04   304   0.117E-01
  91 F= -.61341841E+02 E0= -.61341831E+02  d E =-.314717E-02
 trial-energy change:   -0.003147  1 .order   -0.003204   -0.003834   -0.002574
 step:   0.6768(harm=  0.6768)  dis= 0.03048  next Energy=   -61.344529 (dE=-0.583E-02)
 bond charge predicted
       N       E                     dE             d eps       ncg     rms          rms(c)
DAV:   1    -0.613523676571E+02   -0.10554E-01   -0.32648E+00   384   0.111E+01    0.647E-01
DAV:   2    -0.613474811446E+02    0.48865E-02   -0.76011E-02   480   0.182E+00    0.364E-01
DAV:   3    -0.613435297968E+02    0.39513E-02   -0.15040E-02   488   0.739E-01    0.120E-01
DAV:   4    -0.613434916533E+02    0.38144E-04   -0.11234E-03   464   0.235E-01    0.594E-02
DAV:   5    -0.613435833439E+02   -0.91691E-04   -0.17924E-04   304   0.874E-02
  92 F= -.61343583E+02 E0= -.61343578E+02  d E =-.488921E-02
 curvature:  -3.41 expect dE=-0.101E+00 dE for cont linesearch -0.382E-04
 trial: gam= 2.01899 g(F)=  0.286E-01 g(S)=  0.846E-03 ort =-0.139E-02 (trialstep = 0.743E-01)
 search vector abs. value=  0.732E+00
 bond charge predicted
       N       E                     dE             d eps       ncg     rms          rms(c)
DAV:   1    -0.613464734689E+02   -0.29818E-02   -0.36452E-01   384   0.370E+00    0.219E-01
DAV:   2    -0.613458041674E+02    0.66930E-03   -0.87856E-03   472   0.610E-01    0.122E-01
DAV:   3    -0.613453063416E+02    0.49783E-03   -0.17834E-03   488   0.244E-01    0.381E-02
DAV:   4    -0.613453509169E+02   -0.44575E-04   -0.10365E-04   312   0.719E-02
  93 F= -.61345351E+02 E0= -.61345346E+02  d E =-.176757E-02
 ZBRENT: can't locate minimum, use default step
 trial-energy change:   -0.001768  1 .order   -0.001749   -0.001982   -0.001515
 step:   0.2974(harm=  0.3158)  dis= 0.02711  next Energy=   -61.347792 (dE=-0.421E-02)
 bond charge predicted
       N       E                     dE             d eps       ncg     rms          rms(c)
DAV:   1    -0.613574055982E+02   -0.12099E-01   -0.32674E+00   384   0.110E+01    0.666E-01
DAV:   2    -0.613517220477E+02    0.56836E-02   -0.77116E-02   456   0.182E+00    0.372E-01
DAV:   3    -0.613473501050E+02    0.43719E-02   -0.15775E-02   480   0.755E-01    0.113E-01
DAV:   4    -0.613473469812E+02    0.31237E-05   -0.10231E-03   448   0.222E-01    0.554E-02
DAV:   5    -0.613474364074E+02   -0.89426E-04   -0.14959E-04   296   0.817E-02
  94 F= -.61347436E+02 E0= -.61347433E+02  d E =-.385306E-02
 curvature:  -4.31 expect dE=-0.102E+00 dE for cont linesearch -0.769E-04
 trial: gam= 0.36144 g(F)=  0.157E-01 g(S)=  0.796E-02 ort = 0.361E-02 (trialstep = 0.119E+00)
 search vector abs. value=  0.122E+00
 bond charge predicted
       N       E                     dE             d eps       ncg     rms          rms(c)
DAV:   1    -0.613504710157E+02   -0.31240E-02   -0.14566E-01   384   0.257E+00    0.152E-01
DAV:   2    -0.613502564263E+02    0.21459E-03   -0.38060E-03   496   0.393E-01    0.864E-02
DAV:   3    -0.613500664630E+02    0.18996E-03   -0.66679E-04   432   0.171E-01    0.232E-02
DAV:   4    -0.613501026485E+02   -0.36186E-04   -0.39795E-05   320   0.453E-02
  95 F= -.61350103E+02 E0= -.61350099E+02  d E =-.266624E-02
 trial-energy change:   -0.002666  1 .order   -0.002496   -0.002964   -0.002028
 step:   0.3767(harm=  0.3767)  dis= 0.01221  next Energy=   -61.352130 (dE=-0.469E-02)
 bond charge predicted
       N       E                     dE             d eps       ncg     rms          rms(c)
DAV:   1    -0.613543132400E+02   -0.42468E-02   -0.68057E-01   384   0.554E+00    0.331E-01
DAV:   2    -0.613533738221E+02    0.93942E-03   -0.17528E-02   488   0.850E-01    0.189E-01
DAV:   3    -0.613523773396E+02    0.99648E-03   -0.30254E-03   496   0.370E-01    0.484E-02
DAV:   4    -0.613523738381E+02    0.35015E-05   -0.16659E-04   296   0.957E-02
  96 F= -.61352374E+02 E0= -.61352368E+02  d E =-.493743E-02
 curvature:  -0.92 expect dE=-0.146E-01 dE for cont linesearch -0.244E-06
 trial: gam= 0.72992 g(F)=  0.157E-01 g(S)=  0.199E-03 ort = 0.179E-03 (trialstep = 0.171E+00)
 search vector abs. value=  0.811E-01
 bond charge predicted
       N       E                     dE             d eps       ncg     rms          rms(c)
DAV:   1    -0.613554410428E+02   -0.30637E-02   -0.19972E-01   384   0.313E+00    0.178E-01
DAV:   2    -0.613550618793E+02    0.37916E-03   -0.50351E-03   496   0.466E-01    0.996E-02
DAV:   3    -0.613547700477E+02    0.29183E-03   -0.96585E-04   488   0.200E-01    0.326E-02
DAV:   4    -0.613547858970E+02   -0.15849E-04   -0.65792E-05   304   0.577E-02
  97 F= -.61354786E+02 E0= -.61354779E+02  d E =-.241206E-02
 trial-energy change:   -0.002412  1 .order   -0.002330   -0.002729   -0.001930
 step:   0.5826(harm=  0.5826)  dis= 0.01298  next Energy=   -61.357036 (dE=-0.466E-02)
 bond charge predicted
       N       E                     dE             d eps       ncg     rms          rms(c)
DAV:   1    -0.613615489356E+02   -0.67789E-02   -0.11684E+00   448   0.750E+00    0.441E-01
DAV:   2    -0.613583308008E+02    0.32181E-02   -0.19780E-02   472   0.968E-01    0.237E-01
DAV:   3    -0.613566921017E+02    0.16387E-02   -0.53805E-03   488   0.464E-01    0.738E-02
DAV:   4    -0.613566634600E+02    0.28642E-04   -0.38061E-04   448   0.134E-01
  98 F= -.61356663E+02 E0= -.61356655E+02  d E =-.428962E-02
 curvature:  -1.48 expect dE=-0.260E-01 dE for cont linesearch -0.204E-04
 trial: gam= 1.26786 g(F)=  0.123E-01 g(S)=  0.532E-02 ort =-0.106E-02 (trialstep = 0.141E+00)
 search vector abs. value=  0.145E+00
 bond charge predicted
       N       E                     dE             d eps       ncg     rms          rms(c)
DAV:   1    -0.613595316075E+02   -0.28395E-02   -0.22807E-01   384   0.332E+00    0.192E-01
DAV:   2    -0.613588934690E+02    0.63814E-03   -0.56072E-03   488   0.494E-01    0.107E-01
DAV:   3    -0.613585279682E+02    0.36550E-03   -0.11651E-03   496   0.199E-01    0.402E-02
DAV:   4    -0.613585488896E+02   -0.20921E-04   -0.80042E-05   320   0.610E-02
  99 F= -.61358549E+02 E0= -.61358539E+02  d E =-.188543E-02
 trial-energy change:   -0.001885  1 .order   -0.001965   -0.002300   -0.001629
 step:   0.4836(harm=  0.4836)  dis= 0.01309  next Energy=   -61.360604 (dE=-0.394E-02)
 bond charge predicted
       N       E                     dE             d eps       ncg     rms          rms(c)
DAV:   1    -0.613658708257E+02   -0.73429E-02   -0.13425E+00   384   0.803E+00    0.471E-01
DAV:   2    -0.613622604615E+02    0.36104E-02   -0.32920E-02   472   0.120E+00    0.258E-01
DAV:   3    -0.613601799269E+02    0.20805E-02   -0.65184E-03   488   0.481E-01    0.966E-02
DAV:   4    -0.613601141082E+02    0.65819E-04   -0.49701E-04   440   0.145E-01
 100 F= -.61360114E+02 E0= -.61360102E+02  d E =-.345065E-02
 curvature:  -2.16 expect dE=-0.517E-01 dE for cont linesearch -0.332E-04
 trial: gam= 1.10856 g(F)=  0.209E-01 g(S)=  0.304E-02 ort = 0.150E-02 (trialstep = 0.148E+00)
 search vector abs. value=  0.206E+00
 bond charge predicted
       N       E                     dE             d eps       ncg     rms          rms(c)
DAV:   1    -0.613647465767E+02   -0.45666E-02   -0.31839E-01   384   0.401E+00    0.247E-01
DAV:   2    -0.613635578247E+02    0.11888E-02   -0.81250E-03   536   0.608E-01    0.137E-01
DAV:   3    -0.613629515590E+02    0.60627E-03   -0.20632E-03   504   0.268E-01    0.469E-02
DAV:   4    -0.613629671560E+02   -0.15597E-04   -0.15245E-04   304   0.847E-02
 101 F= -.61362967E+02 E0= -.61362955E+02  d E =-.285305E-02
 trial-energy change:   -0.002853  1 .order   -0.003099   -0.003792   -0.002405
 step:   0.4045(harm=  0.4045)  dis= 0.01153  next Energy=   -61.365297 (dE=-0.518E-02)
 bond charge predicted
       N       E                     dE             d eps       ncg     rms          rms(c)
DAV:   1    -0.613711393024E+02   -0.81877E-02   -0.97223E-01   448   0.697E+00    0.433E-01
DAV:   2    -0.613668799124E+02    0.42594E-02   -0.17935E-02   528   0.914E-01    0.235E-01
DAV:   3    -0.613650944355E+02    0.17855E-02   -0.64799E-03   496   0.470E-01    0.773E-02
DAV:   4    -0.613650560227E+02    0.38413E-04   -0.50674E-04   432   0.148E-01
 102 F= -.61365056E+02 E0= -.61365045E+02  d E =-.494191E-02
 curvature:  -1.62 expect dE=-0.244E-01 dE for cont linesearch -0.120E-03
 trial: gam= 0.56909 g(F)=  0.137E-01 g(S)=  0.130E-02 ort = 0.391E-02 (trialstep = 0.199E+00)
 search vector abs. value=  0.861E-01
 bond charge predicted
       N       E                     dE             d eps       ncg     rms          rms(c)
DAV:   1    -0.613693491217E+02   -0.42547E-02   -0.22823E-01   448   0.349E+00    0.223E-01
DAV:   2    -0.613681800881E+02    0.11690E-02   -0.44851E-03   520   0.461E-01    0.122E-01
DAV:   3    -0.613676975365E+02    0.48255E-03   -0.17294E-03   480   0.247E-01    0.377E-02
DAV:   4    -0.613677246299E+02   -0.27093E-04   -0.11937E-04   304   0.781E-02
 103 F= -.61367725E+02 E0= -.61367716E+02  d E =-.266861E-02
 trial-energy change:   -0.002669  1 .order   -0.002804   -0.003440   -0.002169
 step:   0.5393(harm=  0.5393)  dis= 0.00989  next Energy=   -61.369711 (dE=-0.465E-02)
 bond charge predicted
       N       E                     dE             d eps       ncg     rms          rms(c)
DAV:   1    -0.613741004492E+02   -0.64029E-02   -0.66834E-01   448   0.596E+00    0.382E-01
DAV:   2    -0.613708246115E+02    0.32758E-02   -0.13210E-02   528   0.786E-01    0.206E-01
DAV:   3    -0.613694349297E+02    0.13897E-02   -0.47940E-03   488   0.414E-01    0.621E-02
DAV:   4    -0.613694217916E+02    0.13138E-04   -0.32266E-04   368   0.126E-01
 104 F= -.61369422E+02 E0= -.61369417E+02  d E =-.436577E-02
 curvature:  -1.35 expect dE=-0.138E-01 dE for cont linesearch -0.137E-04
 trial: gam= 0.82385 g(F)=  0.896E-02 g(S)=  0.133E-02 ort = 0.937E-03 (trialstep = 0.267E+00)
 search vector abs. value=  0.703E-01
 bond charge predicted
       N       E                     dE             d eps       ncg     rms          rms(c)
DAV:   1    -0.613738158209E+02   -0.43809E-02   -0.33295E-01   448   0.434E+00    0.278E-01
DAV:   2    -0.613722279057E+02    0.15879E-02   -0.62309E-03   504   0.562E-01    0.151E-01
DAV:   3    -0.613715166791E+02    0.71123E-03   -0.24772E-03   504   0.309E-01    0.426E-02
DAV:   4    -0.613715313689E+02   -0.14690E-04   -0.16220E-04   312   0.909E-02
 105 F= -.61371531E+02 E0= -.61371527E+02  d E =-.210958E-02
 trial-energy change:   -0.002110  1 .order   -0.002199   -0.002957   -0.001441
 step:   0.5214(harm=  0.5214)  dis= 0.00966  next Energy=   -61.372305 (dE=-0.288E-02)
 bond charge predicted
       N       E                     dE             d eps       ncg     rms          rms(c)
DAV:   1    -0.613743079636E+02   -0.27913E-02   -0.30290E-01   448   0.414E+00    0.264E-01
DAV:   2    -0.613728591907E+02    0.14488E-02   -0.56911E-03   504   0.536E-01    0.143E-01
DAV:   3    -0.613722127463E+02    0.64644E-03   -0.22794E-03   496   0.295E-01    0.405E-02
DAV:   4    -0.613722215416E+02   -0.87953E-05   -0.14997E-04   312   0.871E-02
 106 F= -.61372222E+02 E0= -.61372218E+02  d E =-.279975E-02
 curvature:  -1.66 expect dE=-0.148E-01 dE for cont linesearch -0.235E-05
 trial: gam= 0.85170 g(F)=  0.862E-02 g(S)=  0.344E-03 ort = 0.316E-03 (trialstep = 0.318E+00)
 search vector abs. value=  0.605E-01
 bond charge predicted
       N       E                     dE             d eps       ncg     rms          rms(c)
DAV:   1    -0.613770642450E+02   -0.48515E-02   -0.41806E-01   448   0.476E+00    0.296E-01
DAV:   2    -0.613751890893E+02    0.18752E-02   -0.74127E-03   456   0.594E-01    0.161E-01
DAV:   3    -0.613743178653E+02    0.87122E-03   -0.28303E-03   496   0.319E-01    0.486E-02
DAV:   4    -0.613743252331E+02   -0.73678E-05   -0.17722E-04   304   0.945E-02
 107 F= -.61374325E+02 E0= -.61374321E+02  d E =-.210369E-02
 trial-energy change:   -0.002104  1 .order   -0.002272   -0.002937   -0.001606
 step:   0.7023(harm=  0.7023)  dis= 0.01351  next Energy=   -61.375463 (dE=-0.324E-02)
 bond charge predicted
       N       E                     dE             d eps       ncg     rms          rms(c)
DAV:   1    -0.613789679678E+02   -0.46501E-02   -0.61179E-01   448   0.575E+00    0.360E-01
DAV:   2    -0.613761920380E+02    0.27759E-02   -0.10915E-02   464   0.720E-01    0.195E-01
DAV:   3    -0.613749182660E+02    0.12738E-02   -0.41323E-03   488   0.386E-01    0.590E-02
DAV:   4    -0.613749191882E+02   -0.92223E-06   -0.25553E-04   304   0.114E-01
 108 F= -.61374919E+02 E0= -.61374913E+02  d E =-.269765E-02
 curvature:  -2.30 expect dE=-0.533E-01 dE for cont linesearch -0.335E-05
 trial: gam= 2.67604 g(F)=  0.217E-01 g(S)=  0.145E-02 ort =-0.297E-03 (trialstep = 0.525E-01)
 search vector abs. value=  0.455E+00
 bond charge predicted
       N       E                     dE             d eps       ncg     rms          rms(c)
DAV:   1    -0.613766487488E+02   -0.17305E-02   -0.85995E-02   448   0.213E+00    0.137E-01
DAV:   2    -0.613761665638E+02    0.48218E-03   -0.16525E-03   512   0.274E-01    0.737E-02
DAV:   3    -0.613759754147E+02    0.19115E-03   -0.68058E-04   480   0.149E-01    0.248E-02
DAV:   4    -0.613760087345E+02   -0.33320E-04   -0.43868E-05   304   0.443E-02
 109 F= -.61376009E+02 E0= -.61376002E+02  d E =-.108955E-02
 ZBRENT: can't locate minimum, use default step
 trial-energy change:   -0.001090  1 .order   -0.001097   -0.001175   -0.001020
 step:   0.2101(harm=  0.3975)  dis= 0.01101  next Energy=   -61.379364 (dE=-0.444E-02)
 bond charge predicted
       N       E                     dE             d eps       ncg     rms          rms(c)
DAV:   1    -0.613837623636E+02   -0.77869E-02   -0.77418E-01   448   0.638E+00    0.414E-01
DAV:   2    -0.613797526995E+02    0.40097E-02   -0.14799E-02   448   0.819E-01    0.221E-01
DAV:   3    -0.613780085466E+02    0.17442E-02   -0.57053E-03   488   0.438E-01    0.704E-02
DAV:   4    -0.613780019909E+02    0.65557E-05   -0.35998E-04   408   0.124E-01
 110 F= -.61378002E+02 E0= -.61377994E+02  d E =-.308280E-02
 curvature:  -2.85 expect dE=-0.396E-01 dE for cont linesearch -0.101E-02
 ZBRENT: increasing intervall
 opt :   0.5253  next Energy=   -61.379877 (dE=-0.496E-02)
 bond charge predicted
       N       E                     dE             d eps       ncg     rms          rms(c)
DAV:   1    -0.614012847474E+02   -0.23276E-01   -0.31252E+00   448   0.128E+01    0.844E-01
DAV:   2    -0.613847947707E+02    0.16490E-01   -0.60938E-02   456   0.164E+00    0.449E-01
DAV:   3    -0.613778695016E+02    0.69253E-02   -0.22943E-02   496   0.879E-01    0.145E-01
DAV:   4    -0.613777973546E+02    0.72147E-04   -0.14985E-03   472   0.248E-01    0.713E-02
DAV:   5    -0.613778592725E+02   -0.61918E-04   -0.21139E-04   288   0.896E-02
 111 F= -.61377859E+02 E0= -.61377846E+02  d E =-.294008E-02
 curvature:  -5.31 expect dE=-0.138E+00 dE for cont linesearch -0.337E-03
 trial: gam= 0.00000 g(F)=  0.199E-01 g(S)=  0.601E-02 ort =-0.537E-02 (trialstep = 0.147E+00)
 search vector abs. value=  0.259E-01
 bond charge predicted
       N       E                     dE             d eps       ncg     rms          rms(c)
DAV:   1    -0.613812514288E+02   -0.34541E-02   -0.46039E-02   384   0.159E+00    0.822E-02
DAV:   2    -0.613812525611E+02   -0.11323E-05   -0.12349E-03   504   0.233E-01    0.525E-02
DAV:   3    -0.613812812753E+02   -0.28714E-04   -0.14071E-04   320   0.872E-02
 112 F= -.61381281E+02 E0= -.61381272E+02  d E =-.342200E-02
 trial-energy change:   -0.003422  1 .order   -0.003161   -0.003813   -0.002510
 step:   0.4305(harm=  0.4305)  dis= 0.00476  next Energy=   -61.383439 (dE=-0.558E-02)
 bond charge predicted
       N       E                     dE             d eps       ncg     rms          rms(c)
DAV:   1    -0.613839974259E+02   -0.27449E-02   -0.17131E-01   384   0.307E+00    0.160E-01
DAV:   2    -0.613838387053E+02    0.15872E-03   -0.44508E-03   512   0.443E-01    0.104E-01
DAV:   3    -0.613837060272E+02    0.13268E-03   -0.52038E-04   512   0.161E-01    0.455E-02
DAV:   4    -0.613837104974E+02   -0.44702E-05   -0.69347E-05   336   0.537E-02
 113 F= -.61383710E+02 E0= -.61383706E+02  d E =-.585122E-02
 curvature:  -0.22 expect dE=-0.110E-02 dE for cont linesearch -0.295E-05
 trial: gam= 0.21961 g(F)=  0.314E-02 g(S)=  0.196E-02 ort =-0.596E-03 (trialstep = 0.204E+00)
 search vector abs. value=  0.609E-02
 bond charge predicted
       N       E                     dE             d eps       ncg     rms          rms(c)
DAV:   1    -0.613845278912E+02   -0.82186E-03   -0.18441E-02   384   0.988E-01    0.550E-02
DAV:   2    -0.613844759658E+02    0.51925E-04   -0.43200E-04   512   0.138E-01
 114 F= -.61384476E+02 E0= -.61384472E+02  d E =-.765468E-03
 trial-energy change:   -0.000765  1 .order   -0.000765   -0.001012   -0.000518
 step:   0.4171(harm=  0.4171)  dis= 0.00235  next Energy=   -61.384746 (dE=-0.104E-02)
 bond charge predicted
       N       E                     dE             d eps       ncg     rms          rms(c)
DAV:   1    -0.613847031509E+02   -0.17526E-03   -0.19455E-02   384   0.102E+00    0.627E-02
DAV:   2    -0.613846416546E+02    0.61496E-04   -0.42868E-04   512   0.138E-01
 115 F= -.61384642E+02 E0= -.61384638E+02  d E =-.931157E-03
 curvature:  -0.26 expect dE=-0.117E-02 dE for cont linesearch -0.342E-05
 trial: gam= 0.94045 g(F)=  0.408E-02 g(S)=  0.517E-03 ort =-0.285E-03 (trialstep = 0.159E+00)
 search vector abs. value=  0.944E-02
 reached required accuracy - stopping structural energy minimisation
 writing wavefunctions
Sun Mar  6 20:15:37 CST 2022
