Sun Mar  6 20:32:37 CST 2022
 running on   48 total cores
 distrk:  each k-point on   48 cores,    1 groups
 distr:  one band on   24 cores,    2 groups
 using from now: INCAR     
 vasp.5.3.5 31Mar14 (build Jan 11 2016 19:50:55) complex                        
  
 POSCAR found type information on POSCAR  B  C  Na
 POSCAR found :  3 types and       9 ions
 scaLAPACK will be used

 ----------------------------------------------------------------------------- 
|                                                                             |
|           W    W    AA    RRRRR   N    N  II  N    N   GGGG   !!!           |
|           W    W   A  A   R    R  NN   N  II  NN   N  G    G  !!!           |
|           W    W  A    A  R    R  N N  N  II  N N  N  G       !!!           |
|           W WW W  AAAAAA  RRRRR   N  N N  II  N  N N  G  GGG   !            |
|           WW  WW  A    A  R   R   N   NN  II  N   NN  G    G                |
|           W    W  A    A  R    R  N    N  II  N    N   GGGG   !!!           |
|                                                                             |
|      For optimal performance we recommend to set                            |
|        NCORE= 4 - approx SQRT( number of cores)                             |
|      NCORE specifies how many cores store one orbital (NPAR=cpu/NCORE).     |
|      This setting can  greatly improve the performance of VASP for DFT.     |
|      The default, NPAR=number of cores might be grossly inefficient         |
|      on modern multi-core architectures or massively parallel machines.     |
|      Do your own testing !!!!                                               |
|      Unfortunately you need to use the default for GW and RPA calculations. |
|      (for HF NCORE is supported but not extensively tested yet)             |
|                                                                             |
 ----------------------------------------------------------------------------- 

 LDA part: xc-table for Pade appr. of Perdew
 POSCAR, INCAR and KPOINTS ok, starting setup
 WARNING: small aliasing (wrap around) errors must be expected
 FFT: planning ...
 WAVECAR not read
 entering main loop
       N       E                     dE             d eps       ncg     rms          rms(c)
DAV:   1     0.278645025659E+03    0.27865E+03   -0.13024E+04   456   0.916E+02
DAV:   2    -0.287492181318E+02   -0.30739E+03   -0.29509E+03   592   0.249E+02
DAV:   3    -0.757729048767E+02   -0.47024E+02   -0.46183E+02   456   0.107E+02
DAV:   4    -0.774290520803E+02   -0.16561E+01   -0.16489E+01   528   0.268E+01
DAV:   5    -0.774692124080E+02   -0.40160E-01   -0.40128E-01   552   0.340E+00    0.133E+01
DAV:   6    -0.711703788896E+02    0.62988E+01   -0.72664E+00   528   0.178E+01    0.742E+00
DAV:   7    -0.684501688421E+02    0.27202E+01   -0.55758E+00   512   0.131E+01    0.264E+00
DAV:   8    -0.680885896610E+02    0.36158E+00   -0.66948E-01   568   0.421E+00    0.101E+00
DAV:   9    -0.680501273971E+02    0.38462E-01   -0.59960E-02   448   0.141E+00    0.440E-01
DAV:  10    -0.680474866613E+02    0.26407E-02   -0.10780E-02   496   0.607E-01    0.225E-01
DAV:  11    -0.680436690152E+02    0.38176E-02   -0.33450E-03   496   0.304E-01    0.123E-01
DAV:  12    -0.680437541810E+02   -0.85166E-04   -0.19125E-03   440   0.229E-01    0.851E-02
DAV:  13    -0.680442649924E+02   -0.51081E-03   -0.14069E-03   472   0.137E-01    0.521E-02
DAV:  14    -0.680460030933E+02   -0.17381E-02   -0.11235E-03   360   0.142E-01    0.372E-02
DAV:  15    -0.680475044486E+02   -0.15014E-02   -0.43335E-04   408   0.684E-02    0.143E-02
DAV:  16    -0.680480241164E+02   -0.51967E-03   -0.70887E-05   320   0.393E-02    0.162E-02
DAV:  17    -0.680481762942E+02   -0.15218E-03   -0.21787E-05   320   0.227E-02    0.465E-03
DAV:  18    -0.680483193430E+02   -0.14305E-03   -0.20775E-05   280   0.162E-02    0.374E-03
DAV:  19    -0.680483484407E+02   -0.29098E-04   -0.50041E-06   320   0.796E-03
   1 F= -.68048348E+02 E0= -.67996703E+02  d E =-.680483E+02
 curvature:   0.00 expect dE= 0.000E+00 dE for cont linesearch  0.000E+00
 trial: gam= 0.00000 g(F)=  0.898E+00 g(S)=  0.177E+00 ort = 0.000E+00 (trialstep = 0.100E+01)
 search vector abs. value=  0.108E+01
 bond charge predicted
       N       E                     dE             d eps       ncg     rms          rms(c)
DAV:   1    -0.682560390529E+02   -0.20772E+00   -0.16842E+02   432   0.101E+02    0.343E+00
DAV:   2    -0.684390013810E+02   -0.18296E+00   -0.51227E+00   424   0.144E+01    0.193E+00
DAV:   3    -0.683966930744E+02    0.42308E-01   -0.17897E-01   536   0.283E+00    0.137E+00
DAV:   4    -0.683683981252E+02    0.28295E-01   -0.61838E-02   440   0.181E+00    0.259E-01
DAV:   5    -0.683665420208E+02    0.18561E-02   -0.78019E-03   448   0.551E-01    0.962E-02
DAV:   6    -0.683661875750E+02    0.35445E-03   -0.15494E-03   496   0.273E-01    0.527E-02
DAV:   7    -0.683660716681E+02    0.11591E-03   -0.17500E-04   328   0.892E-02    0.318E-02
DAV:   8    -0.683660160204E+02    0.55648E-04   -0.20943E-04   400   0.764E-02
   2 F= -.68366016E+02 E0= -.68328072E+02  d E =-.317668E+00
 trial-energy change:   -0.317668  1 .order   -0.380100   -1.075285    0.315085
 step:   0.7189(harm=  0.7734)  dis= 0.10478  next Energy=   -68.411681 (dE=-0.363E+00)
 bond charge predicted
       N       E                     dE             d eps       ncg     rms          rms(c)
DAV:   1    -0.684221327381E+02   -0.56061E-01   -0.11152E+01   384   0.209E+01    0.852E-01
DAV:   2    -0.684199062127E+02    0.22265E-02   -0.25283E-01   424   0.339E+00    0.545E-01
DAV:   3    -0.684149752499E+02    0.49310E-02   -0.13576E-02   504   0.885E-01    0.319E-01
DAV:   4    -0.684133571919E+02    0.16181E-02   -0.77138E-03   464   0.684E-01    0.586E-02
DAV:   5    -0.684132771111E+02    0.80081E-04   -0.91319E-04   416   0.219E-01
   3 F= -.68413277E+02 E0= -.68374704E+02  d E =-.364929E+00
 curvature:  -0.36 expect dE=-0.104E+00 dE for cont linesearch -0.481E-06
 trial: gam= 0.26756 g(F)=  0.249E+00 g(S)=  0.371E-01 ort =-0.119E-02 (trialstep = 0.944E+00)
 search vector abs. value=  0.363E+00
 bond charge predicted
       N       E                     dE             d eps       ncg     rms          rms(c)
DAV:   1    -0.684412009354E+02   -0.27844E-01   -0.43930E+01   384   0.445E+01    0.162E+00
DAV:   2    -0.684750140793E+02   -0.33813E-01   -0.12033E+00   464   0.711E+00    0.937E-01
DAV:   3    -0.684572793844E+02    0.17735E-01   -0.73802E-02   504   0.189E+00    0.451E-01
DAV:   4    -0.684531112310E+02    0.41682E-02   -0.15182E-02   448   0.709E-01    0.119E-01
DAV:   5    -0.684528984786E+02    0.21275E-03   -0.12867E-03   496   0.224E-01    0.520E-02
DAV:   6    -0.684528304496E+02    0.68029E-04   -0.20905E-04   416   0.855E-02
   4 F= -.68452830E+02 E0= -.68405146E+02  d E =-.395533E-01
 trial-energy change:   -0.039553  1 .order   -0.043733   -0.270101    0.182634
 step:   0.5504(harm=  0.5631)  dis= 0.04429  next Energy=   -68.491200 (dE=-0.779E-01)
 bond charge predicted
       N       E                     dE             d eps       ncg     rms          rms(c)
DAV:   1    -0.684933707092E+02   -0.40472E-01   -0.74146E+00   384   0.177E+01    0.650E-01
DAV:   2    -0.684956457396E+02   -0.22750E-02   -0.17737E-01   488   0.274E+00    0.406E-01
DAV:   3    -0.684924257312E+02    0.32200E-02   -0.15670E-02   448   0.859E-01    0.178E-01
DAV:   4    -0.684920809061E+02    0.34483E-03   -0.25122E-03   432   0.314E-01    0.698E-02
DAV:   5    -0.684920703061E+02    0.10600E-04   -0.38073E-04   440   0.126E-01
   5 F= -.68492070E+02 E0= -.68449774E+02  d E =-.787932E-01
 curvature:  -0.36 expect dE=-0.299E-01 dE for cont linesearch -0.985E-07
 trial: gam= 0.38398 g(F)=  0.826E-01 g(S)=  0.139E-02 ort =-0.317E-03 (trialstep = 0.865E+00)
 search vector abs. value=  0.137E+00
 bond charge predicted
       N       E                     dE             d eps       ncg     rms          rms(c)
DAV:   1    -0.684851869977E+02    0.68939E-02   -0.14297E+01   384   0.238E+01    0.654E-01
DAV:   2    -0.685055007524E+02   -0.20314E-01   -0.29614E-01   496   0.335E+00    0.432E-01
DAV:   3    -0.685024699327E+02    0.30308E-02   -0.16227E-02   456   0.911E-01    0.142E-01
DAV:   4    -0.685023637178E+02    0.10621E-03   -0.27452E-03   432   0.321E-01    0.630E-02
DAV:   5    -0.685023437864E+02    0.19931E-04   -0.21125E-04   360   0.934E-02
   6 F= -.68502344E+02 E0= -.68464291E+02  d E =-.102735E-01
 trial-energy change:   -0.010273  1 .order   -0.009957   -0.072529    0.052614
 step:   0.5014(harm=  0.5014)  dis= 0.02795  next Energy=   -68.513088 (dE=-0.210E-01)
 bond charge predicted
       N       E                     dE             d eps       ncg     rms          rms(c)
DAV:   1    -0.685104169841E+02   -0.80533E-02   -0.24886E+00   384   0.976E+00    0.268E-01
DAV:   2    -0.685138386774E+02   -0.34217E-02   -0.50225E-02   488   0.139E+00    0.185E-01
DAV:   3    -0.685133130283E+02    0.52565E-03   -0.26626E-03   416   0.379E-01    0.655E-02
DAV:   4    -0.685133070097E+02    0.60186E-05   -0.48040E-04   408   0.146E-01
   7 F= -.68513307E+02 E0= -.68473643E+02  d E =-.212367E-01
 curvature:  -0.41 expect dE=-0.226E-01 dE for cont linesearch -0.411E-05
 trial: gam= 0.64648 g(F)=  0.480E-01 g(S)=  0.695E-02 ort = 0.117E-02 (trialstep = 0.792E+00)
 search vector abs. value=  0.114E+00
 bond charge predicted
       N       E                     dE             d eps       ncg     rms          rms(c)
DAV:   1    -0.685175865430E+02   -0.42735E-02   -0.10483E+01   384   0.197E+01    0.466E-01
DAV:   2    -0.685322586437E+02   -0.14672E-01   -0.20255E-01   472   0.266E+00    0.292E-01
DAV:   3    -0.685320014614E+02    0.25718E-03   -0.93653E-03   424   0.642E-01    0.158E-01
DAV:   4    -0.685321372548E+02   -0.13579E-03   -0.13373E-03   416   0.253E-01    0.642E-02
DAV:   5    -0.685321547780E+02   -0.17523E-04   -0.13465E-04   288   0.788E-02
   8 F= -.68532155E+02 E0= -.68495167E+02  d E =-.188478E-01
 trial-energy change:   -0.018848  1 .order   -0.018879   -0.044176    0.006417
 step:   0.6919(harm=  0.6919)  dis= 0.03765  next Energy=   -68.532593 (dE=-0.193E-01)
 bond charge predicted
       N       E                     dE             d eps       ncg     rms          rms(c)
DAV:   1    -0.685323149162E+02   -0.17766E-03   -0.16591E-01   384   0.241E+00    0.599E-02
DAV:   2    -0.685325032337E+02   -0.18832E-03   -0.29204E-03   472   0.331E-01    0.376E-02
DAV:   3    -0.685324987247E+02    0.45090E-05   -0.15196E-04   376   0.855E-02
   9 F= -.68532499E+02 E0= -.68495168E+02  d E =-.191917E-01
 curvature:  -0.71 expect dE=-0.180E-01 dE for cont linesearch -0.501E-05
 trial: gam= 0.47311 g(F)=  0.228E-01 g(S)=  0.265E-02 ort = 0.898E-03 (trialstep = 0.772E+00)
 search vector abs. value=  0.517E-01
 bond charge predicted
       N       E                     dE             d eps       ncg     rms          rms(c)
DAV:   1    -0.685434774947E+02   -0.10974E-01   -0.44751E+00   384   0.127E+01    0.394E-01
DAV:   2    -0.685435399637E+02   -0.62469E-04   -0.81154E-02   416   0.174E+00    0.237E-01
DAV:   3    -0.685427925154E+02    0.74745E-03   -0.40988E-03   440   0.454E-01    0.134E-01
DAV:   4    -0.685426311585E+02    0.16136E-03   -0.18161E-03   480   0.273E-01    0.302E-02
DAV:   5    -0.685426476153E+02   -0.16457E-04   -0.23026E-04   376   0.984E-02
  10 F= -.68542648E+02 E0= -.68503707E+02  d E =-.101489E-01
 trial-energy change:   -0.010149  1 .order   -0.010266   -0.019954   -0.000578
 step:   0.7953(harm=  0.7953)  dis= 0.02843  next Energy=   -68.542773 (dE=-0.103E-01)
 bond charge predicted
       N       E                     dE             d eps       ncg     rms          rms(c)
DAV:   1    -0.685426849770E+02   -0.53818E-04   -0.41241E-03   472   0.388E-01    0.138E-02
DAV:   2    -0.685426906033E+02   -0.56263E-05   -0.84945E-05   352   0.579E-02
  11 F= -.68542691E+02 E0= -.68503648E+02  d E =-.101919E-01
 curvature:  -0.80 expect dE=-0.217E-01 dE for cont linesearch -0.114E-07
 trial: gam= 1.11362 g(F)=  0.213E-01 g(S)=  0.596E-02 ort =-0.272E-04 (trialstep = 0.440E+00)
 search vector abs. value=  0.914E-01
 bond charge predicted
       N       E                     dE             d eps       ncg     rms          rms(c)
DAV:   1    -0.685540982500E+02   -0.11413E-01   -0.24132E+00   384   0.907E+00    0.390E-01
DAV:   2    -0.685511658524E+02    0.29324E-02   -0.51618E-02   432   0.137E+00    0.236E-01
DAV:   3    -0.685500912679E+02    0.10746E-02   -0.28786E-03   424   0.387E-01    0.130E-01
DAV:   4    -0.685497377582E+02    0.35351E-03   -0.19079E-03   456   0.305E-01    0.288E-02
DAV:   5    -0.685497626859E+02   -0.24928E-04   -0.16582E-04   352   0.103E-01
  12 F= -.68549763E+02 E0= -.68511505E+02  d E =-.707208E-02
 trial-energy change:   -0.007072  1 .order   -0.007083   -0.011986   -0.002180
 step:   0.5377(harm=  0.5377)  dis= 0.02493  next Energy=   -68.550016 (dE=-0.733E-02)
 bond charge predicted
       N       E                     dE             d eps       ncg     rms          rms(c)
DAV:   1    -0.685502888430E+02   -0.55108E-03   -0.12011E-01   416   0.203E+00    0.883E-02
DAV:   2    -0.685501368180E+02    0.15203E-03   -0.27075E-03   424   0.301E-01    0.539E-02
DAV:   3    -0.685500833025E+02    0.53515E-04   -0.15284E-04   352   0.876E-02
  13 F= -.68550083E+02 E0= -.68511994E+02  d E =-.739270E-02
 curvature:  -0.90 expect dE=-0.200E-01 dE for cont linesearch -0.490E-04
 trial: gam= 0.75671 g(F)=  0.157E-01 g(S)=  0.650E-02 ort = 0.223E-02 (trialstep = 0.459E+00)
 search vector abs. value=  0.779E-01
 bond charge predicted
       N       E                     dE             d eps       ncg     rms          rms(c)
DAV:   1    -0.685696373259E+02   -0.19501E-01   -0.20401E+00   416   0.819E+00    0.525E-01
DAV:   2    -0.685604928043E+02    0.91445E-02   -0.53472E-02   416   0.137E+00    0.291E-01
DAV:   3    -0.685584290942E+02    0.20637E-02   -0.44807E-03   424   0.470E-01    0.149E-01
DAV:   4    -0.685577481059E+02    0.68099E-03   -0.22505E-03   456   0.310E-01    0.413E-02
DAV:   5    -0.685577742961E+02   -0.26190E-04   -0.14113E-04   320   0.938E-02
  14 F= -.68557774E+02 E0= -.68520841E+02  d E =-.769099E-02
 trial-energy change:   -0.007691  1 .order   -0.008745   -0.010978   -0.006512
 step:   1.1294(harm=  1.1294)  dis= 0.04523  next Energy=   -68.563576 (dE=-0.135E-01)
 bond charge predicted
       N       E                     dE             d eps       ncg     rms          rms(c)
DAV:   1    -0.685874246075E+02   -0.29677E-01   -0.43512E+00   416   0.119E+01    0.760E-01
DAV:   2    -0.685685597544E+02    0.18865E-01   -0.11116E-01   440   0.200E+00    0.420E-01
DAV:   3    -0.685638582984E+02    0.47015E-02   -0.10928E-02   432   0.736E-01    0.192E-01
DAV:   4    -0.685628005282E+02    0.10578E-02   -0.34682E-03   448   0.385E-01    0.566E-02
DAV:   5    -0.685628645151E+02   -0.63987E-04   -0.21503E-04   336   0.116E-01
  15 F= -.68562865E+02 E0= -.68527284E+02  d E =-.127812E-01
 curvature:  -1.84 expect dE=-0.688E-01 dE for cont linesearch -0.336E-03
 trial: gam= 1.50709 g(F)=  0.309E-01 g(S)=  0.644E-02 ort = 0.377E-02 (trialstep = 0.205E+00)
 search vector abs. value=  0.226E+00
 bond charge predicted
       N       E                     dE             d eps       ncg     rms          rms(c)
DAV:   1    -0.685794153697E+02   -0.16615E-01   -0.10943E+00   416   0.606E+00    0.426E-01
DAV:   2    -0.685722792293E+02    0.71361E-02   -0.30868E-02   416   0.995E-01    0.235E-01
DAV:   3    -0.685708312107E+02    0.14480E-02   -0.25244E-03   416   0.353E-01    0.124E-01
DAV:   4    -0.685703057568E+02    0.52545E-03   -0.19273E-03   448   0.277E-01    0.304E-02
DAV:   5    -0.685703705031E+02   -0.64746E-04   -0.11883E-04   328   0.906E-02
  16 F= -.68570371E+02 E0= -.68534607E+02  d E =-.750599E-02
 ZBRENT: can't locate minimum, use default step
 trial-energy change:   -0.007506  1 .order   -0.007876   -0.008815   -0.006937
 step:   0.8195(harm=  0.9616)  dis= 0.05189  next Energy=   -68.583552 (dE=-0.207E-01)
 bond charge predicted
       N       E                     dE             d eps       ncg     rms          rms(c)
DAV:   1    -0.686553563023E+02   -0.85051E-01   -0.97979E+00   416   0.180E+01    0.125E+00
DAV:   2    -0.686004090119E+02    0.54947E-01   -0.24990E-01   432   0.303E+00    0.700E-01
DAV:   3    -0.685847587817E+02    0.15650E-01   -0.53878E-02   440   0.142E+00    0.270E-01
DAV:   4    -0.685838215572E+02    0.93722E-03   -0.93864E-03   400   0.484E-01    0.183E-01
DAV:   5    -0.685817147457E+02    0.21068E-02   -0.38209E-03   416   0.328E-01    0.471E-02
DAV:   6    -0.685819169668E+02   -0.20222E-03   -0.36188E-04   432   0.132E-01    0.235E-02
DAV:   7    -0.685821068617E+02   -0.18989E-03   -0.88355E-05   328   0.581E-02    0.159E-02
DAV:   8    -0.685823041893E+02   -0.19733E-03   -0.81750E-05   336   0.435E-02    0.751E-03
DAV:   9    -0.685824799403E+02   -0.17575E-03   -0.43943E-05   344   0.271E-02    0.496E-03
DAV:  10    -0.685826126028E+02   -0.13266E-03   -0.42835E-05   328   0.217E-02    0.237E-03
DAV:  11    -0.685826408597E+02   -0.28257E-04   -0.57151E-06   344   0.121E-02
  17 F= -.68582641E+02 E0= -.68546015E+02  d E =-.197763E-01
 curvature:  -2.43 expect dE=-0.106E+00 dE for cont linesearch -0.448E-03
 trial: gam= 1.20903 g(F)=  0.401E-01 g(S)=  0.326E-02 ort = 0.645E-02 (trialstep = 0.190E+00)
 search vector abs. value=  0.389E+00
 bond charge predicted
       N       E                     dE             d eps       ncg     rms          rms(c)
DAV:   1    -0.686045260633E+02   -0.21913E-01   -0.15740E+00   416   0.741E+00    0.519E-01
DAV:   2    -0.685936108154E+02    0.10915E-01   -0.42567E-02   424   0.118E+00    0.287E-01
DAV:   3    -0.685914478444E+02    0.21630E-02   -0.35665E-03   448   0.421E-01    0.143E-01
DAV:   4    -0.685907439697E+02    0.70387E-03   -0.22426E-03   432   0.297E-01    0.330E-02
DAV:   5    -0.685907671574E+02   -0.23188E-04   -0.12722E-04   336   0.942E-02
  18 F= -.68590767E+02 E0= -.68554286E+02  d E =-.812630E-02
 ZBRENT: can't locate minimum, use default step
 trial-energy change:   -0.008126  1 .order   -0.008533   -0.009735   -0.007331
 step:   0.7610(harm=  0.7706)  dis= 0.05985  next Energy=   -68.602356 (dE=-0.197E-01)
 bond charge predicted
       N       E                     dE             d eps       ncg     rms          rms(c)
DAV:   1    -0.687075653937E+02   -0.11682E+00   -0.14083E+01   416   0.220E+01    0.152E+00
DAV:   2    -0.686293600965E+02    0.78205E-01   -0.34695E-01   432   0.367E+00    0.868E-01
DAV:   3    -0.686066376282E+02    0.22722E-01   -0.10962E-01   464   0.194E+00    0.401E-01
DAV:   4    -0.685991568795E+02    0.74807E-02   -0.93803E-03   400   0.535E-01    0.190E-01
DAV:   5    -0.685983503192E+02    0.80656E-03   -0.20719E-03   448   0.260E-01    0.616E-02
DAV:   6    -0.685984964629E+02   -0.14614E-03   -0.27939E-04   416   0.115E-01    0.249E-02
DAV:   7    -0.685987214469E+02   -0.22498E-03   -0.89210E-05   328   0.573E-02    0.145E-02
DAV:   8    -0.685990167694E+02   -0.29532E-03   -0.11606E-04   392   0.446E-02    0.779E-03
DAV:   9    -0.685992405154E+02   -0.22375E-03   -0.84547E-05   360   0.329E-02    0.597E-03
DAV:  10    -0.685993148967E+02   -0.74381E-04   -0.18384E-05   344   0.166E-02
  19 F= -.68599315E+02 E0= -.68562800E+02  d E =-.166740E-01
 curvature:  -2.93 expect dE=-0.139E+00 dE for cont linesearch -0.637E-03
 trial: gam= 0.00000 g(F)=  0.453E-01 g(S)=  0.221E-02 ort =-0.920E-02 (trialstep = 0.304E+00)
 search vector abs. value=  0.476E-01
 bond charge predicted
       N       E                     dE             d eps       ncg     rms          rms(c)
DAV:   1    -0.686062097325E+02   -0.69692E-02   -0.55649E-01   400   0.483E+00    0.192E-01
DAV:   2    -0.686062862130E+02   -0.76480E-04   -0.11516E-02   496   0.674E-01    0.126E-01
DAV:   3    -0.686060044454E+02    0.28177E-03   -0.82066E-04   424   0.179E-01    0.699E-02
DAV:   4    -0.686059570834E+02    0.47362E-04   -0.18686E-04   384   0.832E-02
  20 F= -.68605957E+02 E0= -.68569065E+02  d E =-.664219E-02
 trial-energy change:   -0.006642  1 .order   -0.006652   -0.014477    0.001173
 step:   0.2816(harm=  0.2816)  dis= 0.00676  next Energy=   -68.606011 (dE=-0.670E-02)
 bond charge predicted
       N       E                     dE             d eps       ncg     rms          rms(c)
DAV:   1    -0.686060056485E+02   -0.12031E-05   -0.33190E-03   408   0.372E-01    0.142E-02
DAV:   2    -0.686060085367E+02   -0.28881E-05   -0.77217E-05   288   0.599E-02
  21 F= -.68606009E+02 E0= -.68569213E+02  d E =-.669364E-02
 curvature:  -0.14 expect dE=-0.697E-03 dE for cont linesearch -0.101E-05
 trial: gam= 0.11638 g(F)=  0.354E-02 g(S)=  0.141E-02 ort =-0.585E-03 (trialstep = 0.300E+00)
 search vector abs. value=  0.546E-02
 bond charge predicted
       N       E                     dE             d eps       ncg     rms          rms(c)
DAV:   1    -0.686074004366E+02   -0.13948E-02   -0.45711E-02   448   0.155E+00    0.884E-02
DAV:   2    -0.686072004756E+02    0.19996E-03   -0.88056E-04   440   0.199E-01    0.485E-02
DAV:   3    -0.686071490823E+02    0.51393E-04   -0.98676E-05   288   0.737E-02
  22 F= -.68607149E+02 E0= -.68570638E+02  d E =-.114055E-02
 trial-energy change:   -0.001141  1 .order   -0.001184   -0.001464   -0.000904
 step:   0.7845(harm=  0.7845)  dis= 0.00333  next Energy=   -68.607924 (dE=-0.192E-02)
 bond charge predicted
       N       E                     dE             d eps       ncg     rms          rms(c)
DAV:   1    -0.686081992009E+02   -0.99873E-03   -0.11690E-01   448   0.249E+00    0.143E-01
DAV:   2    -0.686076981504E+02    0.50105E-03   -0.21346E-03   456   0.308E-01    0.798E-02
DAV:   3    -0.686075542482E+02    0.14390E-03   -0.24683E-04   320   0.116E-01    0.380E-02
DAV:   4    -0.686075222926E+02    0.31956E-04   -0.13877E-04   336   0.786E-02
  23 F= -.68607522E+02 E0= -.68571308E+02  d E =-.151376E-02
 curvature:  -0.44 expect dE=-0.279E-02 dE for cont linesearch -0.986E-04
 trial: gam= 0.00000 g(F)=  0.502E-02 g(S)=  0.134E-02 ort =-0.111E-02 (trialstep = 0.341E+00)
 search vector abs. value=  0.636E-02
 bond charge predicted
       N       E                     dE             d eps       ncg     rms          rms(c)
DAV:   1    -0.686090686604E+02   -0.15144E-02   -0.84431E-02   384   0.199E+00    0.971E-02
DAV:   2    -0.686088351601E+02    0.23350E-03   -0.23168E-03   432   0.305E-01    0.608E-02
DAV:   3    -0.686087568813E+02    0.78279E-04   -0.13491E-04   304   0.832E-02
  24 F= -.68608757E+02 E0= -.68571882E+02  d E =-.123459E-02
 trial-energy change:   -0.001235  1 .order   -0.001321   -0.002166   -0.000477
 step:   0.4367(harm=  0.4367)  dis= 0.00300  next Energy=   -68.608911 (dE=-0.139E-02)
 bond charge predicted
       N       E                     dE             d eps       ncg     rms          rms(c)
DAV:   1    -0.686087532544E+02    0.81906E-04   -0.58669E-03   384   0.534E-01    0.290E-02
DAV:   2    -0.686087323954E+02    0.20859E-04   -0.12155E-04   304   0.783E-02
  25 F= -.68608732E+02 E0= -.68571518E+02  d E =-.121010E-02
 curvature:  -0.22 expect dE=-0.739E-03 dE for cont linesearch -0.155E-04
 trial: gam= 0.63822 g(F)=  0.214E-02 g(S)=  0.124E-02 ort =-0.672E-03 (trialstep = 0.360E+00)
 search vector abs. value=  0.512E-02
 bond charge predicted
       N       E                     dE             d eps       ncg     rms          rms(c)
DAV:   1    -0.686104585050E+02   -0.17053E-02   -0.57664E-02   416   0.162E+00    0.127E-01
DAV:   2    -0.686097501336E+02    0.70837E-03   -0.17876E-03   408   0.247E-01    0.737E-02
DAV:   3    -0.686096148196E+02    0.13531E-03   -0.14422E-04   304   0.867E-02    0.413E-02
DAV:   4    -0.686095530168E+02    0.61803E-04   -0.20460E-04   376   0.819E-02
  26 F= -.68609553E+02 E0= -.68572224E+02  d E =-.820621E-03
 trial-energy change:   -0.000821  1 .order   -0.000863   -0.001064   -0.000662
 step:   0.9522(harm=  0.9522)  dis= 0.00451  next Energy=   -68.610140 (dE=-0.141E-02)
 bond charge predicted
       N       E                     dE             d eps       ncg     rms          rms(c)
DAV:   1    -0.686125749238E+02   -0.29601E-02   -0.15799E-01   416   0.268E+00    0.200E-01
DAV:   2    -0.686107882835E+02    0.17866E-02   -0.47118E-03   400   0.403E-01    0.115E-01
DAV:   3    -0.686104549808E+02    0.33330E-03   -0.40176E-04   416   0.140E-01    0.644E-02
DAV:   4    -0.686103021691E+02    0.15281E-03   -0.47328E-04   448   0.128E-01    0.138E-02
DAV:   5    -0.686103196032E+02   -0.17434E-04   -0.22369E-05   344   0.400E-02
  27 F= -.68610320E+02 E0= -.68572772E+02  d E =-.158721E-02
 curvature:  -0.82 expect dE=-0.512E-02 dE for cont linesearch -0.107E-03
 trial: gam= 1.17621 g(F)=  0.522E-02 g(S)=  0.995E-03 ort = 0.815E-03 (trialstep = 0.161E+00)
 search vector abs. value=  0.152E-01
 bond charge predicted
       N       E                     dE             d eps       ncg     rms          rms(c)
DAV:   1    -0.686118657586E+02   -0.15636E-02   -0.37982E-02   416   0.133E+00    0.988E-02
DAV:   2    -0.686114740863E+02    0.39167E-03   -0.10353E-03   416   0.197E-01    0.540E-02
DAV:   3    -0.686114006790E+02    0.73407E-04   -0.10626E-04   288   0.727E-02
  28 F= -.68611401E+02 E0= -.68573986E+02  d E =-.108108E-02
 ZBRENT: can't locate minimum, use default step
 trial-energy change:   -0.001081  1 .order   -0.001158   -0.001154   -0.001161
 step:   0.6437(harm=  0.6437)  dis= 0.00433  next Energy=   -68.614989 (dE=-0.467E-02)
 bond charge predicted
       N       E                     dE             d eps       ncg     rms          rms(c)
DAV:   1    -0.686175046165E+02   -0.60305E-02   -0.33675E-01   384   0.396E+00    0.296E-01
DAV:   2    -0.686142642292E+02    0.32404E-02   -0.10084E-02   424   0.618E-01    0.165E-01
DAV:   3    -0.686135556115E+02    0.70862E-03   -0.10733E-03   432   0.221E-01    0.875E-02
DAV:   4    -0.686132893549E+02    0.26626E-03   -0.68769E-04   456   0.159E-01    0.241E-02
DAV:   5    -0.686133092961E+02   -0.19941E-04   -0.44330E-05   328   0.503E-02
  29 F= -.68613309E+02 E0= -.68576293E+02  d E =-.298969E-02
 curvature:  -1.03 expect dE=-0.291E-02 dE for cont linesearch -0.517E-03
 trial: gam= 0.00000 g(F)=  0.185E-02 g(S)=  0.990E-03 ort = 0.277E-02 (trialstep = 0.257E+00)
 search vector abs. value=  0.284E-02
 bond charge predicted
       N       E                     dE             d eps       ncg     rms          rms(c)
DAV:   1    -0.686140299456E+02   -0.74059E-03   -0.19432E-02   456   0.101E+00    0.592E-02
DAV:   2    -0.686139225687E+02    0.10738E-03   -0.44155E-04   384   0.137E-01    0.308E-02
DAV:   3    -0.686139139526E+02    0.86161E-05   -0.44228E-05   296   0.532E-02
  30 F= -.68613914E+02 E0= -.68576696E+02  d E =-.604657E-03
 trial-energy change:   -0.000605  1 .order   -0.000586   -0.000730   -0.000441
 step:   0.6503(harm=  0.6503)  dis= 0.00272  next Energy=   -68.614232 (dE=-0.922E-03)
 bond charge predicted
       N       E                     dE             d eps       ncg     rms          rms(c)
DAV:   1    -0.686144636993E+02   -0.54113E-03   -0.44489E-02   448   0.153E+00    0.927E-02
DAV:   2    -0.686141901959E+02    0.27350E-03   -0.10445E-03   424   0.207E-01    0.486E-02
DAV:   3    -0.686141479511E+02    0.42245E-04   -0.90714E-05   312   0.717E-02
  31 F= -.68614148E+02 E0= -.68576638E+02  d E =-.838655E-03
 curvature:  -0.33 expect dE=-0.122E-02 dE for cont linesearch -0.199E-05
 trial: gam= 1.36525 g(F)=  0.248E-02 g(S)=  0.126E-02 ort =-0.132E-03 (trialstep = 0.110E+00)
 search vector abs. value=  0.867E-02
 reached required accuracy - stopping structural energy minimisation
 writing wavefunctions
Sun Mar  6 20:34:18 CST 2022
