Sun Mar  6 20:24:29 CST 2022
 running on   48 total cores
 distrk:  each k-point on   48 cores,    1 groups
 distr:  one band on   24 cores,    2 groups
 using from now: INCAR     
 vasp.5.3.5 31Mar14 (build Jan 11 2016 19:50:55) complex                        
  
 POSCAR found type information on POSCAR  B  C  Na
 POSCAR found :  3 types and       9 ions
 scaLAPACK will be used

 ----------------------------------------------------------------------------- 
|                                                                             |
|           W    W    AA    RRRRR   N    N  II  N    N   GGGG   !!!           |
|           W    W   A  A   R    R  NN   N  II  NN   N  G    G  !!!           |
|           W    W  A    A  R    R  N N  N  II  N N  N  G       !!!           |
|           W WW W  AAAAAA  RRRRR   N  N N  II  N  N N  G  GGG   !            |
|           WW  WW  A    A  R   R   N   NN  II  N   NN  G    G                |
|           W    W  A    A  R    R  N    N  II  N    N   GGGG   !!!           |
|                                                                             |
|      For optimal performance we recommend to set                            |
|        NCORE= 4 - approx SQRT( number of cores)                             |
|      NCORE specifies how many cores store one orbital (NPAR=cpu/NCORE).     |
|      This setting can  greatly improve the performance of VASP for DFT.     |
|      The default, NPAR=number of cores might be grossly inefficient         |
|      on modern multi-core architectures or massively parallel machines.     |
|      Do your own testing !!!!                                               |
|      Unfortunately you need to use the default for GW and RPA calculations. |
|      (for HF NCORE is supported but not extensively tested yet)             |
|                                                                             |
 ----------------------------------------------------------------------------- 

 LDA part: xc-table for Pade appr. of Perdew
 POSCAR, INCAR and KPOINTS ok, starting setup
 WARNING: small aliasing (wrap around) errors must be expected
 FFT: planning ...
 WAVECAR not read
 entering main loop
       N       E                     dE             d eps       ncg     rms          rms(c)
DAV:   1     0.285001000555E+03    0.28500E+03   -0.12198E+04   448   0.872E+02
DAV:   2    -0.138711600275E+02   -0.29887E+03   -0.28744E+03   576   0.240E+02
DAV:   3    -0.713302676317E+02   -0.57459E+02   -0.57257E+02   432   0.112E+02
DAV:   4    -0.738590136341E+02   -0.25287E+01   -0.25083E+01   536   0.315E+01
DAV:   5    -0.739291393386E+02   -0.70126E-01   -0.69918E-01   504   0.472E+00    0.134E+01
DAV:   6    -0.672878480437E+02    0.66413E+01   -0.72301E+00   512   0.151E+01    0.746E+00
DAV:   7    -0.646362952542E+02    0.26516E+01   -0.82397E+00   488   0.145E+01    0.235E+00
DAV:   8    -0.644147789178E+02    0.22152E+00   -0.51923E-01   464   0.425E+00    0.541E-01
DAV:   9    -0.643347909393E+02    0.79988E-01   -0.83621E-02   480   0.156E+00    0.366E-01
DAV:  10    -0.643132712926E+02    0.21520E-01   -0.23371E-02   512   0.683E-01    0.278E-01
DAV:  11    -0.643200571753E+02   -0.67859E-02   -0.17584E-02   480   0.688E-01    0.210E-01
DAV:  12    -0.643146456404E+02    0.54115E-02   -0.15357E-02   448   0.387E-01    0.157E-01
DAV:  13    -0.643155944651E+02   -0.94882E-03   -0.31462E-03   504   0.230E-01    0.757E-02
DAV:  14    -0.643192995352E+02   -0.37051E-02   -0.31239E-03   416   0.222E-01    0.740E-02
DAV:  15    -0.643218286496E+02   -0.25291E-02   -0.16212E-03   352   0.111E-01    0.402E-02
DAV:  16    -0.643234617852E+02   -0.16331E-02   -0.98553E-04   336   0.782E-02    0.261E-02
DAV:  17    -0.643244143987E+02   -0.95261E-03   -0.38511E-04   288   0.587E-02    0.166E-02
DAV:  18    -0.643246546317E+02   -0.24023E-03   -0.90010E-05   280   0.316E-02    0.644E-03
DAV:  19    -0.643248038896E+02   -0.14926E-03   -0.42317E-05   288   0.221E-02    0.408E-03
DAV:  20    -0.643248677535E+02   -0.63864E-04   -0.15662E-05   288   0.180E-02
   1 F= -.64324868E+02 E0= -.64274403E+02  d E =-.643249E+02
 curvature:   0.00 expect dE= 0.000E+00 dE for cont linesearch  0.000E+00
 trial: gam= 0.00000 g(F)=  0.450E+00 g(S)=  0.789E-01 ort = 0.000E+00 (trialstep = 0.100E+01)
 search vector abs. value=  0.529E+00
 bond charge predicted
       N       E                     dE             d eps       ncg     rms          rms(c)
DAV:   1    -0.642819732042E+02    0.42831E-01   -0.66859E+01   448   0.603E+01    0.343E+00
DAV:   2    -0.640708412453E+02    0.21113E+00   -0.15396E+00   464   0.945E+00    0.184E+00
DAV:   3    -0.639894135569E+02    0.81428E-01   -0.60260E-01   464   0.472E+00    0.522E-01
DAV:   4    -0.639855909362E+02    0.38226E-02   -0.72490E-02   432   0.156E+00    0.365E-01
DAV:   5    -0.639840677744E+02    0.15232E-02   -0.10462E-02   480   0.586E-01    0.186E-01
DAV:   6    -0.639841718709E+02   -0.10410E-03   -0.14003E-03   464   0.244E-01    0.654E-02
DAV:   7    -0.639842512439E+02   -0.79373E-04   -0.15758E-04   336   0.905E-02
   2 F= -.63984251E+02 E0= -.63959481E+02  d E =0.340617E+00
 trial-energy change:    0.340617  1 .order    0.478528   -0.528836    1.485891
 step:   0.3567(harm=  0.2625)  dis= 0.02203  next Energy=   -64.425455 (dE=-0.101E+00)
 bond charge predicted
       N       E                     dE             d eps       ncg     rms          rms(c)
DAV:   1    -0.646039157259E+02   -0.61974E+00   -0.27008E+01   384   0.362E+01    0.249E+00
DAV:   2    -0.644919715566E+02    0.11194E+00   -0.29071E+00   440   0.682E+00    0.115E+00
DAV:   3    -0.644430663874E+02    0.48905E-01   -0.11998E-01   416   0.230E+00    0.665E-01
DAV:   4    -0.644341533329E+02    0.89131E-02   -0.56451E-02   464   0.135E+00    0.341E-01
DAV:   5    -0.644302221377E+02    0.39312E-02   -0.23781E-02   408   0.621E-01    0.115E-01
DAV:   6    -0.644296411799E+02    0.58096E-03   -0.15762E-03   448   0.233E-01    0.527E-02
DAV:   7    -0.644295986604E+02    0.42520E-04   -0.33464E-04   400   0.992E-02
   3 F= -.64429599E+02 E0= -.64389707E+02  d E =-.104731E+00
 curvature:  -0.13 expect dE=-0.884E-01 dE for cont linesearch -0.657E-04
 trial: gam= 1.26335 g(F)=  0.619E+00 g(S)=  0.657E-01 ort = 0.164E-01 (trialstep = 0.294E+00)
 search vector abs. value=  0.157E+01
 bond charge predicted
       N       E                     dE             d eps       ncg     rms          rms(c)
DAV:   1    -0.645203615845E+02   -0.90720E-01   -0.13473E+01   384   0.265E+01    0.113E+00
DAV:   2    -0.645325804873E+02   -0.12219E-01   -0.39207E-01   432   0.402E+00    0.687E-01
DAV:   3    -0.645250845400E+02    0.74959E-02   -0.32765E-02   536   0.138E+00    0.266E-01
DAV:   4    -0.645247662785E+02    0.31826E-03   -0.65439E-03   448   0.563E-01    0.991E-02
DAV:   5    -0.645246020101E+02    0.16427E-03   -0.89456E-04   464   0.217E-01    0.348E-02
DAV:   6    -0.645246192775E+02   -0.17267E-04   -0.17750E-04   424   0.829E-02
   4 F= -.64524619E+02 E0= -.64494254E+02  d E =-.950206E-01
 trial-energy change:   -0.095021  1 .order   -0.094552   -0.206986    0.017882
 step:   0.2704(harm=  0.2702)  dis= 0.02717  next Energy=   -64.525322 (dE=-0.957E-01)
 bond charge predicted
       N       E                     dE             d eps       ncg     rms          rms(c)
DAV:   1    -0.645253117188E+02   -0.70971E-03   -0.80323E-02   408   0.197E+00    0.894E-02
DAV:   2    -0.645253804853E+02   -0.68766E-04   -0.21734E-03   432   0.297E-01    0.526E-02
DAV:   3    -0.645253428414E+02    0.37644E-04   -0.14591E-04   344   0.101E-01
   5 F= -.64525343E+02 E0= -.64494488E+02  d E =-.957442E-01
 curvature:  -0.30 expect dE=-0.430E-01 dE for cont linesearch -0.280E-07
 trial: gam= 0.08961 g(F)=  0.960E-01 g(S)=  0.470E-01 ort = 0.383E-03 (trialstep = 0.289E+00)
 search vector abs. value=  0.156E+00
 bond charge predicted
       N       E                     dE             d eps       ncg     rms          rms(c)
DAV:   1    -0.645550475007E+02   -0.29667E-01   -0.14477E+00   384   0.818E+00    0.423E-01
DAV:   2    -0.645535503913E+02    0.14971E-02   -0.42292E-02   456   0.131E+00    0.233E-01
DAV:   3    -0.645525624851E+02    0.98791E-03   -0.39721E-03   432   0.431E-01    0.136E-01
DAV:   4    -0.645522450013E+02    0.31748E-03   -0.10497E-03   432   0.260E-01    0.347E-02
DAV:   5    -0.645522319778E+02    0.13024E-04   -0.18386E-04   392   0.102E-01
   6 F= -.64552232E+02 E0= -.64518201E+02  d E =-.268891E-01
 trial-energy change:   -0.026889  1 .order   -0.027049   -0.041335   -0.012762
 step:   0.4179(harm=  0.4179)  dis= 0.01280  next Energy=   -64.555242 (dE=-0.299E-01)
 bond charge predicted
       N       E                     dE             d eps       ncg     rms          rms(c)
DAV:   1    -0.645557967620E+02   -0.35518E-02   -0.29067E-01   384   0.368E+00    0.190E-01
DAV:   2    -0.645554403496E+02    0.35641E-03   -0.85304E-03   448   0.583E-01    0.104E-01
DAV:   3    -0.645552609915E+02    0.17936E-03   -0.86143E-04   392   0.195E-01    0.614E-02
DAV:   4    -0.645551965079E+02    0.64484E-04   -0.20283E-04   352   0.118E-01
   7 F= -.64555197E+02 E0= -.64519421E+02  d E =-.298537E-01
 curvature:  -0.23 expect dE=-0.351E-01 dE for cont linesearch -0.197E-06
 trial: gam= 1.08429 g(F)=  0.146E+00 g(S)=  0.899E-02 ort = 0.367E-03 (trialstep = 0.145E+00)
 search vector abs. value=  0.338E+00
 bond charge predicted
       N       E                     dE             d eps       ncg     rms          rms(c)
DAV:   1    -0.645701252169E+02   -0.14864E-01   -0.79443E-01   384   0.581E+00    0.280E-01
DAV:   2    -0.645704389398E+02   -0.31372E-03   -0.17893E-02   496   0.877E-01    0.175E-01
DAV:   3    -0.645699671590E+02    0.47178E-03   -0.27877E-03   464   0.397E-01    0.501E-02
DAV:   4    -0.645699422999E+02    0.24859E-04   -0.43334E-04   440   0.133E-01
   8 F= -.64569942E+02 E0= -.64534359E+02  d E =-.147458E-01
 trial-energy change:   -0.014746  1 .order   -0.014399   -0.022437   -0.006361
 step:   0.2021(harm=  0.2021)  dis= 0.01057  next Energy=   -64.570855 (dE=-0.157E-01)
 bond charge predicted
       N       E                     dE             d eps       ncg     rms          rms(c)
DAV:   1    -0.645712984573E+02   -0.13313E-02   -0.12532E-01   384   0.232E+00    0.108E-01
DAV:   2    -0.645713856508E+02   -0.87193E-04   -0.29441E-03   480   0.357E-01    0.683E-02
DAV:   3    -0.645713172172E+02    0.68434E-04   -0.42653E-04   464   0.155E-01
   9 F= -.64571317E+02 E0= -.64535685E+02  d E =-.161207E-01
 curvature:  -0.22 expect dE=-0.140E-01 dE for cont linesearch -0.834E-07
 trial: gam= 0.43484 g(F)=  0.426E-01 g(S)=  0.210E-01 ort =-0.358E-03 (trialstep = 0.156E+00)
 search vector abs. value=  0.127E+00
 bond charge predicted
       N       E                     dE             d eps       ncg     rms          rms(c)
DAV:   1    -0.645803410985E+02   -0.89554E-02   -0.38244E-01   384   0.362E+00    0.161E-01
DAV:   2    -0.645803331879E+02    0.79106E-05   -0.89084E-03   400   0.585E-01    0.899E-02
DAV:   3    -0.645802095373E+02    0.12365E-03   -0.67205E-04   368   0.171E-01    0.540E-02
DAV:   4    -0.645801838511E+02    0.25686E-04   -0.15427E-04   304   0.900E-02
  10 F= -.64580184E+02 E0= -.64543901E+02  d E =-.886663E-02
 ZBRENT: can't locate minimum, use default step
 trial-energy change:   -0.008867  1 .order   -0.008790   -0.009916   -0.007663
 step:   0.6250(harm=  0.6878)  dis= 0.02469  next Energy=   -64.593140 (dE=-0.218E-01)
 bond charge predicted
       N       E                     dE             d eps       ncg     rms          rms(c)
DAV:   1    -0.645953891659E+02   -0.15180E-01   -0.34480E+00   384   0.109E+01    0.498E-01
DAV:   2    -0.645960689926E+02   -0.67983E-03   -0.87852E-02   400   0.179E+00    0.279E-01
DAV:   3    -0.645941467288E+02    0.19223E-02   -0.68187E-03   448   0.513E-01    0.169E-01
DAV:   4    -0.645938155177E+02    0.33121E-03   -0.15746E-03   448   0.268E-01    0.425E-02
DAV:   5    -0.645938180827E+02   -0.25650E-05   -0.24744E-04   400   0.109E-01
  11 F= -.64593818E+02 E0= -.64555320E+02  d E =-.225009E-01
 curvature:  -0.68 expect dE=-0.232E-01 dE for cont linesearch -0.367E-03
 trial: gam= 0.42629 g(F)=  0.266E-01 g(S)=  0.751E-02 ort = 0.829E-02 (trialstep = 0.250E+00)
 search vector abs. value=  0.643E-01
 bond charge predicted
       N       E                     dE             d eps       ncg     rms          rms(c)
DAV:   1    -0.646018177054E+02   -0.80022E-02   -0.51721E-01   384   0.440E+00    0.192E-01
DAV:   2    -0.646018178864E+02   -0.18108E-06   -0.13044E-02   400   0.714E-01    0.115E-01
DAV:   3    -0.646015622397E+02    0.25565E-03   -0.94800E-04   384   0.188E-01    0.689E-02
DAV:   4    -0.646014856814E+02    0.76558E-04   -0.24700E-04   312   0.112E-01
  12 F= -.64601486E+02 E0= -.64563068E+02  d E =-.766760E-02
 trial-energy change:   -0.007668  1 .order   -0.007596   -0.009407   -0.005786
 step:   0.6495(harm=  0.6495)  dis= 0.01922  next Energy=   -64.606037 (dE=-0.122E-01)
 bond charge predicted
       N       E                     dE             d eps       ncg     rms          rms(c)
DAV:   1    -0.646071081325E+02   -0.55459E-02   -0.13220E+00   384   0.704E+00    0.310E-01
DAV:   2    -0.646072464788E+02   -0.13835E-03   -0.33866E-02   416   0.115E+00    0.185E-01
DAV:   3    -0.646064955322E+02    0.75095E-03   -0.23921E-03   448   0.297E-01    0.111E-01
DAV:   4    -0.646062868384E+02    0.20869E-03   -0.63471E-04   456   0.174E-01    0.268E-02
DAV:   5    -0.646062975234E+02   -0.10685E-04   -0.86338E-05   312   0.683E-02
  13 F= -.64606298E+02 E0= -.64568048E+02  d E =-.124794E-01
 curvature:  -0.55 expect dE=-0.472E-01 dE for cont linesearch -0.170E-05
 trial: gam= 2.64481 g(F)=  0.709E-01 g(S)=  0.142E-01 ort = 0.443E-03 (trialstep = 0.395E-01)
 search vector abs. value=  0.537E+00
 bond charge predicted
       N       E                     dE             d eps       ncg     rms          rms(c)
DAV:   1    -0.646094867230E+02   -0.31999E-02   -0.10627E-01   384   0.194E+00    0.801E-02
DAV:   2    -0.646095201202E+02   -0.33397E-04   -0.22161E-03   440   0.298E-01    0.483E-02
DAV:   3    -0.646094809034E+02    0.39217E-04   -0.14547E-04   256   0.903E-02
  14 F= -.64609481E+02 E0= -.64571367E+02  d E =-.318338E-02
 ZBRENT: can't locate minimum, use default step
 trial-energy change:   -0.003183  1 .order   -0.003146   -0.003408   -0.002885
 step:   0.1579(harm=  0.2575)  dis= 0.01404  next Energy=   -64.617408 (dE=-0.111E-01)
 bond charge predicted
       N       E                     dE             d eps       ncg     rms          rms(c)
DAV:   1    -0.646158139107E+02   -0.62938E-02   -0.95453E-01   384   0.580E+00    0.244E-01
DAV:   2    -0.646161697829E+02   -0.35587E-03   -0.19982E-02   448   0.895E-01    0.147E-01
DAV:   3    -0.646157856095E+02    0.38417E-03   -0.15081E-03   432   0.269E-01    0.773E-02
DAV:   4    -0.646156806017E+02    0.10501E-03   -0.44684E-04   384   0.129E-01    0.284E-02
DAV:   5    -0.646156827531E+02   -0.21513E-05   -0.43904E-05   304   0.516E-02
  15 F= -.64615683E+02 E0= -.64578850E+02  d E =-.938523E-02
 curvature:  -0.63 expect dE=-0.232E-01 dE for cont linesearch -0.117E-02
 ZBRENT: increasing intervall
 opt :   0.3948  next Energy=   -64.613277 (dE=-0.698E-02)
 bond charge predicted
       N       E                     dE             d eps       ncg     rms          rms(c)
DAV:   1    -0.646133484626E+02    0.23321E-02   -0.38320E+00   384   0.117E+01    0.492E-01
DAV:   2    -0.646151013427E+02   -0.17529E-02   -0.84187E-02   448   0.184E+00    0.292E-01
DAV:   3    -0.646134873101E+02    0.16140E-02   -0.62046E-03   432   0.554E-01    0.158E-01
DAV:   4    -0.646130361962E+02    0.45111E-03   -0.18343E-03   400   0.266E-01    0.579E-02
DAV:   5    -0.646130170040E+02    0.19192E-04   -0.17725E-04   336   0.107E-01
  16 F= -.64613017E+02 E0= -.64577521E+02  d E =-.671948E-02
 curvature:   1.31 expect dE= 0.224E+00 dE for cont linesearch  0.729E-02
 ZBRENT: bracketing found
 ZBRENT: interpolating
 opt :   0.2444  next Energy=   -64.617042 (dE=-0.107E-01)
 bond charge predicted
       N       E                     dE             d eps       ncg     rms          rms(c)
DAV:   1    -0.646170906668E+02   -0.40545E-02   -0.15345E+00   384   0.738E+00    0.304E-01
DAV:   2    -0.646178215252E+02   -0.73086E-03   -0.31594E-02   448   0.109E+00    0.183E-01
DAV:   3    -0.646173132310E+02    0.50829E-03   -0.23850E-03   448   0.343E-01    0.890E-02
DAV:   4    -0.646172079756E+02    0.10526E-03   -0.64541E-04   416   0.157E-01    0.347E-02
DAV:   5    -0.646171925612E+02    0.15414E-04   -0.64693E-05   304   0.611E-02
  17 F= -.64617193E+02 E0= -.64580860E+02  d E =-.108950E-01
 curvature:  -0.24 expect dE=-0.133E-01 dE for cont linesearch -0.603E-06
 trial: gam= 0.54447 g(F)=  0.447E-01 g(S)=  0.999E-02 ort = 0.115E-02 (trialstep = 0.805E-01)
 search vector abs. value=  0.215E+00
 bond charge predicted
       N       E                     dE             d eps       ncg     rms          rms(c)
DAV:   1    -0.646218846810E+02   -0.46767E-02   -0.16965E-01   384   0.245E+00    0.137E-01
DAV:   2    -0.646215601610E+02    0.32452E-03   -0.45121E-03   400   0.391E-01    0.787E-02
DAV:   3    -0.646214026140E+02    0.15755E-03   -0.31899E-04   320   0.121E-01    0.456E-02
DAV:   4    -0.646213682956E+02    0.34318E-04   -0.19146E-04   304   0.107E-01
  18 F= -.64621368E+02 E0= -.64584920E+02  d E =-.417573E-02
 ZBRENT: can't locate minimum, use default step
 trial-energy change:   -0.004176  1 .order   -0.004139   -0.004453   -0.003825
 step:   0.3219(harm=  0.5711)  dis= 0.01835  next Energy=   -64.632993 (dE=-0.158E-01)
 bond charge predicted
       N       E                     dE             d eps       ncg     rms          rms(c)
DAV:   1    -0.646356628468E+02   -0.14260E-01   -0.15324E+00   384   0.733E+00    0.419E-01
DAV:   2    -0.646330977771E+02    0.25651E-02   -0.43896E-02   400   0.121E+00    0.246E-01
DAV:   3    -0.646312111585E+02    0.18866E-02   -0.34037E-03   416   0.377E-01    0.140E-01
DAV:   4    -0.646308348598E+02    0.37630E-03   -0.15691E-03   480   0.310E-01    0.327E-02
DAV:   5    -0.646308252898E+02    0.95700E-05   -0.23186E-04   384   0.121E-01
  19 F= -.64630825E+02 E0= -.64594422E+02  d E =-.136327E-01
 curvature:  -0.82 expect dE=-0.248E-01 dE for cont linesearch -0.327E-02
 ZBRENT: increasing intervall
 opt :   0.8047  next Energy=   -64.636097 (dE=-0.189E-01)
 bond charge predicted
       N       E                     dE             d eps       ncg     rms          rms(c)
DAV:   1    -0.646573794177E+02   -0.26545E-01   -0.61468E+00   384   0.147E+01    0.868E-01
DAV:   2    -0.646486606399E+02    0.87188E-02   -0.21794E-01   432   0.253E+00    0.514E-01
DAV:   3    -0.646386868389E+02    0.99738E-02   -0.17278E-02   400   0.789E-01    0.284E-01
DAV:   4    -0.646371752281E+02    0.15116E-02   -0.71663E-03   480   0.614E-01    0.876E-02
DAV:   5    -0.646369375610E+02    0.23767E-03   -0.13587E-03   432   0.237E-01    0.370E-02
DAV:   6    -0.646370134447E+02   -0.75884E-04   -0.15868E-04   304   0.862E-02
  20 F= -.64637013E+02 E0= -.64600124E+02  d E =-.198209E-01
 curvature:  -1.33 expect dE=-0.114E+00 dE for cont linesearch -0.102E-03
 trial: gam= 1.66501 g(F)=  0.700E-01 g(S)=  0.157E-01 ort =-0.407E-02 (trialstep = 0.725E-01)
 search vector abs. value=  0.669E+00
 bond charge predicted
       N       E                     dE             d eps       ncg     rms          rms(c)
DAV:   1    -0.646449456872E+02   -0.80081E-02   -0.42196E-01   384   0.386E+00    0.267E-01
DAV:   2    -0.646431971711E+02    0.17485E-02   -0.15978E-02   400   0.665E-01    0.149E-01
DAV:   3    -0.646423859846E+02    0.81119E-03   -0.14800E-03   384   0.209E-01    0.801E-02
DAV:   4    -0.646422745961E+02    0.11139E-03   -0.51537E-04   432   0.176E-01    0.165E-02
DAV:   5    -0.646423121336E+02   -0.37538E-04   -0.47971E-05   312   0.547E-02
  21 F= -.64642312E+02 E0= -.64604971E+02  d E =-.529869E-02
 ZBRENT: can't locate minimum, use default step
 trial-energy change:   -0.005299  1 .order   -0.005135   -0.005723   -0.004548
 step:   0.2900(harm=  0.3531)  dis= 0.02921  next Energy=   -64.650950 (dE=-0.139E-01)
 bond charge predicted
       N       E                     dE             d eps       ncg     rms          rms(c)
DAV:   1    -0.646776321891E+02   -0.35358E-01   -0.38060E+00   384   0.115E+01    0.866E-01
DAV:   2    -0.646648480868E+02    0.12784E-01   -0.22322E-01   432   0.211E+00    0.493E-01
DAV:   3    -0.646526486567E+02    0.12199E-01   -0.19929E-02   400   0.689E-01    0.250E-01
DAV:   4    -0.646512638637E+02    0.13848E-02   -0.63893E-03   480   0.526E-01    0.871E-02
DAV:   5    -0.646509746764E+02    0.28919E-03   -0.11169E-03   408   0.180E-01    0.294E-02
DAV:   6    -0.646510741924E+02   -0.99516E-04   -0.99023E-05   328   0.823E-02
  22 F= -.64651074E+02 E0= -.64612203E+02  d E =-.140607E-01
 curvature:  -1.42 expect dE=-0.123E+00 dE for cont linesearch -0.643E-03
 trial: gam= 0.68671 g(F)=  0.755E-01 g(S)=  0.113E-01 ort = 0.174E-01 (trialstep = 0.116E+00)
 search vector abs. value=  0.426E+00
 bond charge predicted
       N       E                     dE             d eps       ncg     rms          rms(c)
DAV:   1    -0.646637662390E+02   -0.12792E-01   -0.66884E-01   384   0.520E+00    0.337E-01
DAV:   2    -0.646617214262E+02    0.20448E-02   -0.22762E-02   416   0.855E-01    0.190E-01
DAV:   3    -0.646606447841E+02    0.10766E-02   -0.20289E-03   416   0.269E-01    0.111E-01
DAV:   4    -0.646603496545E+02    0.29513E-03   -0.10429E-03   440   0.243E-01    0.237E-02
DAV:   5    -0.646603845258E+02   -0.34871E-04   -0.90456E-05   320   0.727E-02
  23 F= -.64660385E+02 E0= -.64622380E+02  d E =-.931033E-02
 trial-energy change:   -0.009310  1 .order   -0.009160   -0.011458   -0.006863
 step:   0.2892(harm=  0.2892)  dis= 0.02134  next Energy=   -64.665359 (dE=-0.143E-01)
 bond charge predicted
       N       E                     dE             d eps       ncg     rms          rms(c)
DAV:   1    -0.646738493712E+02   -0.13500E-01   -0.14893E+00   384   0.777E+00    0.530E-01
DAV:   2    -0.646693801910E+02    0.44692E-02   -0.50622E-02   416   0.131E+00    0.294E-01
DAV:   3    -0.646663573557E+02    0.30228E-02   -0.44966E-03   432   0.422E-01    0.170E-01
DAV:   4    -0.646656222891E+02    0.73507E-03   -0.25245E-03   480   0.382E-01    0.395E-02
DAV:   5    -0.646656357639E+02   -0.13475E-04   -0.28027E-04   360   0.119E-01
  24 F= -.64665636E+02 E0= -.64628515E+02  d E =-.145616E-01
 curvature:  -0.62 expect dE=-0.224E-01 dE for cont linesearch -0.354E-05
 trial: gam= 0.68814 g(F)=  0.281E-01 g(S)=  0.770E-02 ort =-0.156E-02 (trialstep = 0.151E+00)
 search vector abs. value=  0.235E+00
 bond charge predicted
       N       E                     dE             d eps       ncg     rms          rms(c)
DAV:   1    -0.646769583237E+02   -0.11336E-01   -0.57082E-01   384   0.472E+00    0.431E-01
DAV:   2    -0.646726930010E+02    0.42653E-02   -0.28447E-02   400   0.915E-01    0.231E-01
DAV:   3    -0.646702280089E+02    0.24650E-02   -0.28055E-03   416   0.315E-01    0.122E-01
DAV:   4    -0.646698257228E+02    0.40229E-03   -0.14261E-03   480   0.279E-01    0.327E-02
DAV:   5    -0.646698350135E+02   -0.92907E-05   -0.15918E-04   280   0.931E-02
  25 F= -.64669835E+02 E0= -.64632577E+02  d E =-.419925E-02
 trial-energy change:   -0.004199  1 .order   -0.004032   -0.005236   -0.002827
 step:   0.3274(harm=  0.3274)  dis= 0.01779  next Energy=   -64.671326 (dE=-0.569E-02)
 bond charge predicted
       N       E                     dE             d eps       ncg     rms          rms(c)
DAV:   1    -0.646817297978E+02   -0.11904E-01   -0.78788E-01   384   0.554E+00    0.519E-01
DAV:   2    -0.646760688553E+02    0.56609E-02   -0.41316E-02   432   0.109E+00    0.279E-01
DAV:   3    -0.646722409755E+02    0.38279E-02   -0.41563E-03   416   0.386E-01    0.144E-01
DAV:   4    -0.646716922618E+02    0.54871E-03   -0.21227E-03   488   0.342E-01    0.450E-02
DAV:   5    -0.646716549908E+02    0.37271E-04   -0.30407E-04   320   0.122E-01
  26 F= -.64671655E+02 E0= -.64634329E+02  d E =-.601923E-02
 curvature:  -1.11 expect dE=-0.434E-01 dE for cont linesearch -0.230E-05
 trial: gam= 0.88850 g(F)=  0.336E-01 g(S)=  0.558E-02 ort =-0.699E-03 (trialstep = 0.186E+00)
 search vector abs. value=  0.224E+00
 bond charge predicted
       N       E                     dE             d eps       ncg     rms          rms(c)
DAV:   1    -0.646883745782E+02   -0.16682E-01   -0.77579E-01   384   0.547E+00    0.521E-01
DAV:   2    -0.646823333179E+02    0.60413E-02   -0.39437E-02   400   0.103E+00    0.283E-01
DAV:   3    -0.646785560857E+02    0.37772E-02   -0.40189E-03   416   0.380E-01    0.149E-01
DAV:   4    -0.646779055075E+02    0.65058E-03   -0.22528E-03   480   0.346E-01    0.447E-02
DAV:   5    -0.646778858150E+02    0.19693E-04   -0.31576E-04   336   0.127E-01
  27 F= -.64677886E+02 E0= -.64640999E+02  d E =-.623082E-02
 trial-energy change:   -0.006231  1 .order   -0.006016   -0.007168   -0.004865
 step:   0.5789(harm=  0.5789)  dis= 0.02962  next Energy=   -64.682808 (dE=-0.112E-01)
 bond charge predicted
       N       E                     dE             d eps       ncg     rms          rms(c)
DAV:   1    -0.647346168971E+02   -0.56711E-01   -0.35295E+00   384   0.115E+01    0.119E+00
DAV:   2    -0.647101633789E+02    0.24454E-01   -0.37845E-01   448   0.237E+00    0.621E-01
DAV:   3    -0.646881272220E+02    0.22036E-01   -0.22207E-02   440   0.904E-01    0.335E-01
DAV:   4    -0.646861160690E+02    0.20112E-02   -0.17925E-02   496   0.880E-01    0.233E-01
DAV:   5    -0.646836371137E+02    0.24790E-02   -0.64162E-03   416   0.423E-01    0.584E-02
DAV:   6    -0.646836961233E+02   -0.59010E-04   -0.30493E-04   360   0.117E-01
  28 F= -.64683696E+02 E0= -.64648312E+02  d E =-.120411E-01
 curvature:  -1.68 expect dE=-0.429E-01 dE for cont linesearch -0.120E-04
 trial: gam= 0.64412 g(F)=  0.201E-01 g(S)=  0.542E-02 ort =-0.126E-02 (trialstep = 0.265E+00)
 search vector abs. value=  0.117E+00
 bond charge predicted
       N       E                     dE             d eps       ncg     rms          rms(c)
DAV:   1    -0.646986822054E+02   -0.15045E-01   -0.81198E-01   384   0.573E+00    0.480E-01
DAV:   2    -0.646929062447E+02    0.57760E-02   -0.33497E-02   416   0.100E+00    0.268E-01
DAV:   3    -0.646901008326E+02    0.28054E-02   -0.33604E-03   416   0.368E-01    0.149E-01
DAV:   4    -0.646894381991E+02    0.66263E-03   -0.21026E-03   480   0.340E-01    0.391E-02
DAV:   5    -0.646894922464E+02   -0.54047E-04   -0.24339E-04   272   0.130E-01
  29 F= -.64689492E+02 E0= -.64654221E+02  d E =-.579612E-02
 trial-energy change:   -0.005796  1 .order   -0.005314   -0.006532   -0.004095
 step:   0.4189(harm=  0.7092)  dis= 0.01491  next Energy=   -64.690782 (dE=-0.709E-02)
 bond charge predicted
       N       E                     dE             d eps       ncg     rms          rms(c)
DAV:   1    -0.646949431755E+02   -0.55050E-02   -0.27787E-01   384   0.336E+00    0.282E-01
DAV:   2    -0.646926396339E+02    0.23035E-02   -0.11529E-02   400   0.593E-01    0.154E-01
DAV:   3    -0.646917799280E+02    0.85971E-03   -0.11262E-03   432   0.218E-01    0.858E-02
DAV:   4    -0.646915830094E+02    0.19692E-03   -0.71007E-04   432   0.195E-01    0.215E-02
DAV:   5    -0.646916214891E+02   -0.38480E-04   -0.64866E-05   288   0.694E-02
  30 F= -.64691621E+02 E0= -.64656527E+02  d E =-.792537E-02
 curvature:  -0.96 expect dE=-0.214E-01 dE for cont linesearch -0.761E-03
 trial: gam= 0.00000 g(F)=  0.195E-01 g(S)=  0.272E-02 ort = 0.961E-02 (trialstep = 0.295E+00)
 search vector abs. value=  0.222E-01
 bond charge predicted
       N       E                     dE             d eps       ncg     rms          rms(c)
DAV:   1    -0.646937399346E+02   -0.21569E-02   -0.25413E-01   384   0.328E+00    0.257E-01
DAV:   2    -0.646921634188E+02    0.15765E-02   -0.97126E-03   424   0.597E-01    0.128E-01
DAV:   3    -0.646917455151E+02    0.41790E-03   -0.15612E-03   384   0.215E-01    0.648E-02
DAV:   4    -0.646917030103E+02    0.42505E-04   -0.28919E-04   416   0.101E-01
  31 F= -.64691703E+02 E0= -.64655754E+02  d E =-.815211E-04
 trial-energy change:   -0.000082  1 .order   -0.000036   -0.006563    0.006490
 step:   0.1485(harm=  0.1485)  dis= 0.00221  next Energy=   -64.693271 (dE=-0.165E-02)
 bond charge predicted
       N       E                     dE             d eps       ncg     rms          rms(c)
DAV:   1    -0.646938282043E+02   -0.20827E-02   -0.62760E-02   384   0.162E+00    0.123E-01
DAV:   2    -0.646934754277E+02    0.35278E-03   -0.21826E-03   432   0.298E-01    0.600E-02
DAV:   3    -0.646934098810E+02    0.65547E-04   -0.37031E-04   368   0.110E-01
  32 F= -.64693410E+02 E0= -.64657966E+02  d E =-.178839E-02
 curvature:  -0.07 expect dE=-0.621E-03 dE for cont linesearch -0.423E-05
 trial: gam= 0.42718 g(F)=  0.660E-02 g(S)=  0.177E-02 ort =-0.112E-02 (trialstep = 0.266E+00)
 search vector abs. value=  0.115E-01
 bond charge predicted
       N       E                     dE             d eps       ncg     rms          rms(c)
DAV:   1    -0.646951517298E+02   -0.16763E-02   -0.72046E-02   384   0.187E+00    0.103E-01
DAV:   2    -0.646949711511E+02    0.18058E-03   -0.19593E-03   432   0.295E-01    0.597E-02
DAV:   3    -0.646949016027E+02    0.69548E-04   -0.25577E-04   304   0.106E-01
  33 F= -.64694902E+02 E0= -.64659701E+02  d E =-.149172E-02
 trial-energy change:   -0.001492  1 .order   -0.001499   -0.002098   -0.000899
 step:   0.4657(harm=  0.4657)  dis= 0.00350  next Energy=   -64.695246 (dE=-0.184E-02)
 bond charge predicted
       N       E                     dE             d eps       ncg     rms          rms(c)
DAV:   1    -0.646952489973E+02   -0.27785E-03   -0.39313E-02   384   0.139E+00    0.850E-02
DAV:   2    -0.646951413090E+02    0.10769E-03   -0.10225E-03   480   0.214E-01    0.498E-02
DAV:   3    -0.646950898846E+02    0.51424E-04   -0.13893E-04   288   0.822E-02
  34 F= -.64695090E+02 E0= -.64660295E+02  d E =-.168000E-02
 curvature:  -0.34 expect dE=-0.301E-02 dE for cont linesearch -0.101E-04
 trial: gam= 1.10084 g(F)=  0.635E-02 g(S)=  0.255E-02 ort =-0.583E-03 (trialstep = 0.163E+00)
 search vector abs. value=  0.215E-01
 bond charge predicted
       N       E                     dE             d eps       ncg     rms          rms(c)
DAV:   1    -0.646967910236E+02   -0.16497E-02   -0.43683E-02   384   0.147E+00    0.120E-01
DAV:   2    -0.646963448138E+02    0.44621E-03   -0.15590E-03   416   0.225E-01    0.651E-02
DAV:   3    -0.646962304525E+02    0.11436E-03   -0.14317E-04   256   0.812E-02    0.382E-02
DAV:   4    -0.646961913938E+02    0.39059E-04   -0.12772E-04   288   0.719E-02
  35 F= -.64696191E+02 E0= -.64661740E+02  d E =-.110151E-02
 ZBRENT: can't locate minimum, use default step
 trial-energy change:   -0.001102  1 .order   -0.001182   -0.001347   -0.001018
 step:   0.6523(harm=  0.6680)  dis= 0.00449  next Energy=   -64.697848 (dE=-0.276E-02)
 bond charge predicted
       N       E                     dE             d eps       ncg     rms          rms(c)
DAV:   1    -0.647038637312E+02   -0.76333E-02   -0.40274E-01   384   0.444E+00    0.363E-01
DAV:   2    -0.646999960768E+02    0.38677E-02   -0.15670E-02   416   0.681E-01    0.195E-01
DAV:   3    -0.646988513283E+02    0.11447E-02   -0.15833E-03   432   0.256E-01    0.112E-01
DAV:   4    -0.646984882127E+02    0.36312E-03   -0.88566E-04   432   0.202E-01    0.246E-02
DAV:   5    -0.646985060565E+02   -0.17844E-04   -0.73279E-05   304   0.702E-02
  36 F= -.64698506E+02 E0= -.64664796E+02  d E =-.341617E-02
 curvature:  -0.87 expect dE=-0.823E-02 dE for cont linesearch -0.455E-03
 trial: gam= 0.30128 g(F)=  0.758E-02 g(S)=  0.190E-02 ort = 0.335E-02 (trialstep = 0.261E+00)
 search vector abs. value=  0.135E-01
 bond charge predicted
       N       E                     dE             d eps       ncg     rms          rms(c)
DAV:   1    -0.647016469483E+02   -0.31587E-02   -0.87137E-02   448   0.205E+00    0.178E-01
DAV:   2    -0.647005411267E+02    0.11058E-02   -0.43159E-03   416   0.355E-01    0.840E-02
DAV:   3    -0.647003134945E+02    0.22763E-03   -0.49545E-04   400   0.133E-01    0.454E-02
DAV:   4    -0.647002801171E+02    0.33377E-04   -0.12436E-04   304   0.750E-02
  37 F= -.64700280E+02 E0= -.64665866E+02  d E =-.177406E-02
 trial-energy change:   -0.001774  1 .order   -0.001754   -0.002737   -0.000771
 step:   0.3633(harm=  0.3633)  dis= 0.00252  next Energy=   -64.700411 (dE=-0.191E-02)
 bond charge predicted
       N       E                     dE             d eps       ncg     rms          rms(c)
DAV:   1    -0.647006331908E+02   -0.31970E-03   -0.13333E-02   448   0.807E-01    0.686E-02
DAV:   2    -0.647004653601E+02    0.16783E-03   -0.62267E-04   400   0.139E-01    0.323E-02
DAV:   3    -0.647004432218E+02    0.22138E-04   -0.67741E-05   256   0.506E-02
  38 F= -.64700443E+02 E0= -.64665904E+02  d E =-.193717E-02
 curvature:  -0.23 expect dE=-0.278E-02 dE for cont linesearch -0.140E-05
 trial: gam= 1.38721 g(F)=  0.103E-01 g(S)=  0.168E-02 ort = 0.284E-03 (trialstep = 0.980E-01)
 search vector abs. value=  0.386E-01
 bond charge predicted
       N       E                     dE             d eps       ncg     rms          rms(c)
DAV:   1    -0.647017322021E+02   -0.12668E-02   -0.31321E-02   448   0.126E+00    0.102E-01
DAV:   2    -0.647014264537E+02    0.30575E-03   -0.10815E-03   400   0.185E-01    0.500E-02
DAV:   3    -0.647013625910E+02    0.63863E-04   -0.10644E-04   272   0.701E-02
  39 F= -.64701363E+02 E0= -.64666926E+02  d E =-.919369E-03
 trial-energy change:   -0.000919  1 .order   -0.001008   -0.001209   -0.000806
 step:   0.2943(harm=  0.2943)  dis= 0.00313  next Energy=   -64.702258 (dE=-0.181E-02)
 bond charge predicted
       N       E                     dE             d eps       ncg     rms          rms(c)
DAV:   1    -0.647032180727E+02   -0.17916E-02   -0.12482E-01   448   0.252E+00    0.207E-01
DAV:   2    -0.647020366764E+02    0.11814E-02   -0.43861E-03   416   0.371E-01    0.100E-01
DAV:   3    -0.647017400572E+02    0.29662E-03   -0.47136E-04   352   0.141E-01    0.575E-02
DAV:   4    -0.647016542192E+02    0.85838E-04   -0.22810E-04   304   0.102E-01
  40 F= -.64701654E+02 E0= -.64667565E+02  d E =-.121100E-02
 curvature:  -0.46 expect dE=-0.437E-02 dE for cont linesearch -0.142E-03
 trial: gam= 0.00000 g(F)=  0.837E-02 g(S)=  0.111E-02 ort =-0.345E-02 (trialstep = 0.137E+00)
 search vector abs. value=  0.947E-02
 bond charge predicted
       N       E                     dE             d eps       ncg     rms          rms(c)
DAV:   1    -0.647027293331E+02   -0.98928E-03   -0.17726E-02   384   0.895E-01    0.541E-02
DAV:   2    -0.647026676464E+02    0.61687E-04   -0.53996E-04   400   0.159E-01
  41 F= -.64702668E+02 E0= -.64668918E+02  d E =-.101343E-02
 trial-energy change:   -0.001013  1 .order   -0.001001   -0.001301   -0.000702
 step:   0.2981(harm=  0.2981)  dis= 0.00275  next Energy=   -64.703066 (dE=-0.141E-02)
 bond charge predicted
       N       E                     dE             d eps       ncg     rms          rms(c)
DAV:   1    -0.647031700076E+02   -0.44067E-03   -0.23937E-02   384   0.104E+00    0.745E-02
DAV:   2    -0.647030518025E+02    0.11821E-03   -0.74298E-04   416   0.178E-01    0.400E-02
DAV:   3    -0.647030294983E+02    0.22304E-04   -0.96725E-05   264   0.625E-02
  42 F= -.64703029E+02 E0= -.64668754E+02  d E =-.137528E-02
 curvature:  -0.15 expect dE=-0.897E-03 dE for cont linesearch -0.825E-07
 trial: gam= 0.64277 g(F)=  0.448E-02 g(S)=  0.154E-02 ort =-0.724E-04 (trialstep = 0.163E+00)
 search vector abs. value=  0.984E-02
 bond charge predicted
       N       E                     dE             d eps       ncg     rms          rms(c)
DAV:   1    -0.647037514374E+02   -0.69963E-03   -0.27547E-02   448   0.115E+00    0.731E-02
DAV:   2    -0.647036448012E+02    0.10664E-03   -0.65353E-04   464   0.179E-01    0.405E-02
DAV:   3    -0.647036121943E+02    0.32607E-04   -0.16976E-04   288   0.915E-02
  43 F= -.64703612E+02 E0= -.64669552E+02  d E =-.582696E-03
 trial-energy change:   -0.000583  1 .order   -0.000598   -0.000974   -0.000222
 step:   0.2112(harm=  0.2112)  dis= 0.00134  next Energy=   -64.703660 (dE=-0.630E-03)
 bond charge predicted
       N       E                     dE             d eps       ncg     rms          rms(c)
DAV:   1    -0.647036516495E+02   -0.68483E-05   -0.23409E-03   448   0.338E-01    0.240E-02
DAV:   2    -0.647036473235E+02    0.43260E-05   -0.44896E-05   192   0.500E-02
  44 F= -.64703647E+02 E0= -.64669898E+02  d E =-.617825E-03
 curvature:  -0.17 expect dE=-0.582E-03 dE for cont linesearch -0.291E-06
 trial: gam= 0.48389 g(F)=  0.232E-02 g(S)=  0.102E-02 ort = 0.128E-03 (trialstep = 0.173E+00)
 search vector abs. value=  0.577E-02
 reached required accuracy - stopping structural energy minimisation
 writing wavefunctions
Sun Mar  6 20:26:36 CST 2022
