Sun Mar  6 19:51:00 CST 2022
 running on   48 total cores
 distrk:  each k-point on   48 cores,    1 groups
 distr:  one band on   24 cores,    2 groups
 using from now: INCAR     
 vasp.5.3.5 31Mar14 (build Jan 11 2016 19:50:55) complex                        
  
 POSCAR found type information on POSCAR  B  C  Na
 POSCAR found :  3 types and       9 ions
 scaLAPACK will be used

 ----------------------------------------------------------------------------- 
|                                                                             |
|           W    W    AA    RRRRR   N    N  II  N    N   GGGG   !!!           |
|           W    W   A  A   R    R  NN   N  II  NN   N  G    G  !!!           |
|           W    W  A    A  R    R  N N  N  II  N N  N  G       !!!           |
|           W WW W  AAAAAA  RRRRR   N  N N  II  N  N N  G  GGG   !            |
|           WW  WW  A    A  R   R   N   NN  II  N   NN  G    G                |
|           W    W  A    A  R    R  N    N  II  N    N   GGGG   !!!           |
|                                                                             |
|      For optimal performance we recommend to set                            |
|        NCORE= 4 - approx SQRT( number of cores)                             |
|      NCORE specifies how many cores store one orbital (NPAR=cpu/NCORE).     |
|      This setting can  greatly improve the performance of VASP for DFT.     |
|      The default, NPAR=number of cores might be grossly inefficient         |
|      on modern multi-core architectures or massively parallel machines.     |
|      Do your own testing !!!!                                               |
|      Unfortunately you need to use the default for GW and RPA calculations. |
|      (for HF NCORE is supported but not extensively tested yet)             |
|                                                                             |
 ----------------------------------------------------------------------------- 

 LDA part: xc-table for Pade appr. of Perdew
 POSCAR, INCAR and KPOINTS ok, starting setup
 WARNING: small aliasing (wrap around) errors must be expected
 FFT: planning ...
 WAVECAR not read
 entering main loop
       N       E                     dE             d eps       ncg     rms          rms(c)
DAV:   1     0.260805191987E+03    0.26081E+03   -0.11760E+04   488   0.828E+02
DAV:   2    -0.489339917302E+01   -0.26570E+03   -0.25742E+03   584   0.221E+02
DAV:   3    -0.649054173248E+02   -0.60012E+02   -0.59741E+02   488   0.105E+02
DAV:   4    -0.679472699671E+02   -0.30419E+01   -0.30169E+01   536   0.316E+01
DAV:   5    -0.680310900930E+02   -0.83820E-01   -0.83623E-01   472   0.501E+00    0.131E+01
DAV:   6    -0.614293625357E+02    0.66017E+01   -0.14136E+01   464   0.255E+01    0.690E+00
DAV:   7    -0.597243487189E+02    0.17050E+01   -0.50517E+00   504   0.120E+01    0.321E+00
DAV:   8    -0.593858745366E+02    0.33847E+00   -0.99895E-01   504   0.491E+00    0.135E+00
DAV:   9    -0.592731080369E+02    0.11277E+00   -0.14841E-01   488   0.191E+00    0.486E-01
DAV:  10    -0.592356552528E+02    0.37453E-01   -0.40170E-02   536   0.919E-01    0.270E-01
DAV:  11    -0.592165633772E+02    0.19092E-01   -0.22065E-02   512   0.581E-01    0.165E-01
DAV:  12    -0.592134470390E+02    0.31163E-02   -0.14298E-02   472   0.389E-01    0.991E-02
DAV:  13    -0.592177836934E+02   -0.43367E-02   -0.20920E-03   432   0.216E-01    0.558E-02
DAV:  14    -0.592200882590E+02   -0.23046E-02   -0.15101E-03   368   0.110E-01    0.395E-02
DAV:  15    -0.592239575717E+02   -0.38693E-02   -0.13938E-03   368   0.135E-01    0.256E-02
DAV:  16    -0.592255844554E+02   -0.16269E-02   -0.58052E-04   320   0.592E-02    0.127E-02
DAV:  17    -0.592264982945E+02   -0.91384E-03   -0.23063E-04   288   0.428E-02    0.863E-03
DAV:  18    -0.592269556073E+02   -0.45731E-03   -0.10542E-04   288   0.285E-02    0.517E-03
DAV:  19    -0.592270931938E+02   -0.13759E-03   -0.33679E-05   320   0.186E-02    0.227E-03
DAV:  20    -0.592271521947E+02   -0.59001E-04   -0.10589E-05   272   0.116E-02
   1 F= -.59227152E+02 E0= -.59217062E+02  d E =-.592272E+02
 curvature:   0.00 expect dE= 0.000E+00 dE for cont linesearch  0.000E+00
 trial: gam= 0.00000 g(F)=  0.143E+01 g(S)=  0.298E+00 ort = 0.000E+00 (trialstep = 0.100E+01)
 search vector abs. value=  0.173E+01
 bond charge predicted
       N       E                     dE             d eps       ncg     rms          rms(c)
DAV:   1    -0.589246563628E+02    0.30244E+00   -0.21866E+02   432   0.117E+02    0.390E+00
DAV:   2    -0.592332123297E+02   -0.30856E+00   -0.68600E+00   496   0.172E+01    0.233E+00
DAV:   3    -0.591118435323E+02    0.12137E+00   -0.35518E-01   512   0.400E+00    0.108E+00
DAV:   4    -0.590870545523E+02    0.24789E-01   -0.79677E-02   512   0.184E+00    0.263E-01
DAV:   5    -0.590856075030E+02    0.14470E-02   -0.93340E-03   560   0.601E-01    0.124E-01
DAV:   6    -0.590851778187E+02    0.42968E-03   -0.10059E-03   496   0.185E-01    0.591E-02
DAV:   7    -0.590851409032E+02    0.36915E-04   -0.28273E-04   368   0.101E-01
   2 F= -.59085141E+02 E0= -.59061983E+02  d E =0.142011E+00
 trial-energy change:    0.142011  1 .order    0.014873   -1.727954    1.757700
 step:   0.4418(harm=  0.4957)  dis= 0.06956  next Energy=   -59.597865 (dE=-0.371E+00)
 bond charge predicted
       N       E                     dE             d eps       ncg     rms          rms(c)
DAV:   1    -0.596185751325E+02   -0.53340E+00   -0.57105E+01   384   0.489E+01    0.231E+00
DAV:   2    -0.596459789893E+02   -0.27404E-01   -0.16143E+00   544   0.829E+00    0.132E+00
DAV:   3    -0.596056633798E+02    0.40316E-01   -0.12246E-01   528   0.249E+00    0.510E-01
DAV:   4    -0.596015622303E+02    0.41011E-02   -0.21083E-02   520   0.882E-01    0.180E-01
DAV:   5    -0.596013545130E+02    0.20772E-03   -0.23584E-03   528   0.315E-01    0.739E-02
DAV:   6    -0.596014571058E+02   -0.10259E-03   -0.35815E-04   400   0.110E-01    0.272E-02
DAV:   7    -0.596016096742E+02   -0.15257E-03   -0.79689E-05   320   0.560E-02    0.101E-02
DAV:   8    -0.596017310686E+02   -0.12139E-03   -0.24549E-05   344   0.320E-02    0.551E-03
DAV:   9    -0.596018604547E+02   -0.12939E-03   -0.25989E-05   336   0.236E-02    0.319E-03
DAV:  10    -0.596019299918E+02   -0.69537E-04   -0.12544E-05   320   0.159E-02
   3 F= -.59601930E+02 E0= -.59590359E+02  d E =-.374778E+00
 curvature:  -0.25 expect dE=-0.272E+00 dE for cont linesearch -0.924E-04
 trial: gam= 0.65754 g(F)=  0.107E+01 g(S)=  0.408E-01 ort =-0.255E-01 (trialstep = 0.841E+00)
 search vector abs. value=  0.182E+01
 bond charge predicted
       N       E                     dE             d eps       ncg     rms          rms(c)
DAV:   1    -0.594337428421E+02    0.16812E+00   -0.17328E+02   384   0.966E+01    0.318E+00
DAV:   2    -0.596460212496E+02   -0.21228E+00   -0.53373E+00   512   0.148E+01    0.184E+00
DAV:   3    -0.595488287493E+02    0.97193E-01   -0.41975E-01   480   0.385E+00    0.801E-01
DAV:   4    -0.595340668602E+02    0.14762E-01   -0.74046E-02   496   0.153E+00    0.319E-01
DAV:   5    -0.595322445829E+02    0.18223E-02   -0.99839E-03   480   0.547E-01    0.143E-01
DAV:   6    -0.595318099342E+02    0.43465E-03   -0.12688E-03   512   0.208E-01    0.474E-02
DAV:   7    -0.595319113612E+02   -0.10143E-03   -0.19622E-04   384   0.860E-02    0.236E-02
DAV:   8    -0.595321253192E+02   -0.21396E-03   -0.15874E-04   352   0.585E-02    0.133E-02
DAV:   9    -0.595323928094E+02   -0.26749E-03   -0.83732E-05   344   0.411E-02    0.618E-03
DAV:  10    -0.595325646932E+02   -0.17188E-03   -0.49578E-05   320   0.270E-02    0.471E-03
DAV:  11    -0.595327025466E+02   -0.13785E-03   -0.21306E-05   336   0.215E-02    0.244E-03
DAV:  12    -0.595327501438E+02   -0.47597E-04   -0.44449E-06   288   0.116E-02
   4 F= -.59532750E+02 E0= -.59506448E+02  d E =0.691798E-01
 trial-energy change:    0.069180  1 .order    0.021839   -0.920489    0.964167
 step:   0.3796(harm=  0.4110)  dis= 0.06681  next Energy=   -59.805198 (dE=-0.203E+00)
 bond charge predicted
       N       E                     dE             d eps       ncg     rms          rms(c)
DAV:   1    -0.598313941574E+02   -0.29869E+00   -0.44606E+01   384   0.417E+01    0.187E+00
DAV:   2    -0.598343153310E+02   -0.29212E-02   -0.11772E+00   528   0.690E+00    0.103E+00
DAV:   3    -0.598073069741E+02    0.27008E-01   -0.11366E-01   560   0.213E+00    0.443E-01
DAV:   4    -0.598047144018E+02    0.25926E-02   -0.11062E-02   512   0.636E-01    0.193E-01
DAV:   5    -0.598045731401E+02    0.14126E-03   -0.14902E-03   512   0.223E-01    0.623E-02
DAV:   6    -0.598048363342E+02   -0.26319E-03   -0.25619E-04   376   0.978E-02    0.260E-02
DAV:   7    -0.598051471942E+02   -0.31086E-03   -0.12080E-04   352   0.601E-02    0.115E-02
DAV:   8    -0.598053398788E+02   -0.19268E-03   -0.37624E-05   384   0.353E-02    0.737E-03
DAV:   9    -0.598055940860E+02   -0.25421E-03   -0.73631E-05   304   0.309E-02    0.404E-03
DAV:  10    -0.598056952974E+02   -0.10121E-03   -0.30334E-05   352   0.189E-02    0.302E-03
DAV:  11    -0.598057481266E+02   -0.52829E-04   -0.10952E-05   304   0.121E-02
   5 F= -.59805748E+02 E0= -.59788403E+02  d E =-.203818E+00
 curvature:  -0.34 expect dE=-0.483E-01 dE for cont linesearch -0.570E-04
 trial: gam= 0.21692 g(F)=  0.109E+00 g(S)=  0.326E-01 ort =-0.175E-01 (trialstep = 0.749E+00)
 search vector abs. value=  0.220E+00
 bond charge predicted
       N       E                     dE             d eps       ncg     rms          rms(c)
DAV:   1    -0.598135196063E+02   -0.78243E-02   -0.15161E+01   384   0.244E+01    0.908E-01
DAV:   2    -0.598297110293E+02   -0.16191E-01   -0.39068E-01   512   0.396E+00    0.529E-01
DAV:   3    -0.598249266199E+02    0.47844E-02   -0.24100E-02   544   0.106E+00    0.221E-01
DAV:   4    -0.598241868700E+02    0.73975E-03   -0.28477E-03   512   0.332E-01    0.662E-02
DAV:   5    -0.598241761242E+02    0.10746E-04   -0.29699E-04   432   0.116E-01
   6 F= -.59824176E+02 E0= -.59801556E+02  d E =-.184280E-01
 trial-energy change:   -0.018428  1 .order   -0.018646   -0.103351    0.066059
 step:   0.4570(harm=  0.4570)  dis= 0.02891  next Energy=   -59.837274 (dE=-0.315E-01)
 bond charge predicted
       N       E                     dE             d eps       ncg     rms          rms(c)
DAV:   1    -0.598362404729E+02   -0.12054E-01   -0.22716E+00   384   0.934E+00    0.347E-01
DAV:   2    -0.598379702289E+02   -0.17298E-02   -0.53195E-02   480   0.145E+00    0.209E-01
DAV:   3    -0.598373413467E+02    0.62888E-03   -0.33772E-03   528   0.393E-01    0.871E-02
DAV:   4    -0.598372775702E+02    0.63776E-04   -0.42913E-04   488   0.134E-01
   7 F= -.59837278E+02 E0= -.59816845E+02  d E =-.315294E-01
 curvature:  -0.36 expect dE=-0.424E-01 dE for cont linesearch -0.311E-07
 trial: gam= 0.84758 g(F)=  0.107E+00 g(S)=  0.946E-02 ort = 0.137E-03 (trialstep = 0.554E+00)
 search vector abs. value=  0.275E+00
 bond charge predicted
       N       E                     dE             d eps       ncg     rms          rms(c)
DAV:   1    -0.598374144376E+02   -0.73091E-04   -0.11142E+01   384   0.216E+01    0.721E-01
DAV:   2    -0.598487743465E+02   -0.11360E-01   -0.27440E-01   480   0.344E+00    0.444E-01
DAV:   3    -0.598461138691E+02    0.26605E-02   -0.21640E-02   592   0.952E-01    0.261E-01
DAV:   4    -0.598459789397E+02    0.13493E-03   -0.17862E-03   496   0.261E-01    0.126E-01
DAV:   5    -0.598459557880E+02    0.23152E-04   -0.38882E-04   512   0.135E-01
   8 F= -.59845956E+02 E0= -.59821472E+02  d E =-.867822E-02
 trial-energy change:   -0.008678  1 .order   -0.009217   -0.064409    0.045975
 step:   0.3190(harm=  0.3230)  dis= 0.02165  next Energy=   -59.855735 (dE=-0.185E-01)
 bond charge predicted
       N       E                     dE             d eps       ncg     rms          rms(c)
DAV:   1    -0.598545565509E+02   -0.85776E-02   -0.19829E+00   384   0.897E+00    0.294E-01
DAV:   2    -0.598563260608E+02   -0.17695E-02   -0.46793E-02   480   0.142E+00    0.187E-01
DAV:   3    -0.598558274534E+02    0.49861E-03   -0.43009E-03   560   0.415E-01    0.938E-02
DAV:   4    -0.598558203292E+02    0.71242E-05   -0.35199E-04   432   0.119E-01
   9 F= -.59855820E+02 E0= -.59833124E+02  d E =-.185428E-01
 curvature:  -0.38 expect dE=-0.174E-01 dE for cont linesearch -0.124E-05
 trial: gam= 0.44101 g(F)=  0.340E-01 g(S)=  0.116E-01 ort =-0.947E-03 (trialstep = 0.507E+00)
 search vector abs. value=  0.982E-01
 bond charge predicted
       N       E                     dE             d eps       ncg     rms          rms(c)
DAV:   1    -0.598708025648E+02   -0.14975E-01   -0.31550E+00   384   0.110E+01    0.422E-01
DAV:   2    -0.598716908085E+02   -0.88824E-03   -0.70132E-02   496   0.162E+00    0.247E-01
DAV:   3    -0.598708459409E+02    0.84487E-03   -0.47115E-03   512   0.435E-01    0.130E-01
DAV:   4    -0.598707868943E+02    0.59047E-04   -0.10823E-03   512   0.208E-01    0.422E-02
DAV:   5    -0.598707962288E+02   -0.93345E-05   -0.15905E-04   304   0.838E-02
  10 F= -.59870796E+02 E0= -.59846849E+02  d E =-.149759E-01
 trial-energy change:   -0.014976  1 .order   -0.014887   -0.022921   -0.006852
 step:   0.7226(harm=  0.7226)  dis= 0.02712  next Energy=   -59.872168 (dE=-0.163E-01)
 bond charge predicted
       N       E                     dE             d eps       ncg     rms          rms(c)
DAV:   1    -0.598723901243E+02   -0.16032E-02   -0.57407E-01   384   0.468E+00    0.178E-01
DAV:   2    -0.598724981049E+02   -0.10798E-03   -0.12579E-02   496   0.680E-01    0.105E-01
DAV:   3    -0.598723612598E+02    0.13685E-03   -0.84649E-04   464   0.183E-01    0.551E-02
DAV:   4    -0.598723597815E+02    0.14783E-05   -0.18584E-04   320   0.915E-02
  11 F= -.59872360E+02 E0= -.59848029E+02  d E =-.165395E-01
 curvature:  -0.78 expect dE=-0.551E-01 dE for cont linesearch -0.269E-06
 trial: gam= 1.56368 g(F)=  0.587E-01 g(S)=  0.115E-01 ort =-0.183E-03 (trialstep = 0.174E+00)
 search vector abs. value=  0.310E+00
 bond charge predicted
       N       E                     dE             d eps       ncg     rms          rms(c)
DAV:   1    -0.598848639153E+02   -0.12503E-01   -0.11296E+00   384   0.647E+00    0.289E-01
DAV:   2    -0.598842374596E+02    0.62646E-03   -0.27632E-02   480   0.969E-01    0.171E-01
DAV:   3    -0.598837665082E+02    0.47095E-03   -0.20555E-03   496   0.279E-01    0.900E-02
DAV:   4    -0.598837303700E+02    0.36138E-04   -0.55120E-04   448   0.160E-01
  12 F= -.59883730E+02 E0= -.59859320E+02  d E =-.113706E-01
 ZBRENT: can't locate minimum, use default step
 trial-energy change:   -0.011371  1 .order   -0.011070   -0.012190   -0.009949
 step:   0.6972(harm=  0.9482)  dis= 0.04256  next Energy=   -59.905517 (dE=-0.332E-01)
 bond charge predicted
       N       E                     dE             d eps       ncg     rms          rms(c)
DAV:   1    -0.599163507910E+02   -0.32584E-01   -0.10196E+01   384   0.195E+01    0.898E-01
DAV:   2    -0.599115156864E+02    0.48351E-02   -0.27451E-01   480   0.303E+00    0.529E-01
DAV:   3    -0.599065185340E+02    0.49972E-02   -0.20117E-02   512   0.875E-01    0.282E-01
DAV:   4    -0.599056551737E+02    0.86336E-03   -0.48943E-03   464   0.491E-01    0.796E-02
DAV:   5    -0.599057053023E+02   -0.50129E-04   -0.80922E-04   488   0.193E-01
  13 F= -.59905705E+02 E0= -.59881112E+02  d E =-.333455E-01
 curvature:  -1.88 expect dE=-0.825E-01 dE for cont linesearch -0.384E-02
 ZBRENT: increasing intervall
 opt :   1.7431  next Energy=   -59.898603 (dE=-0.262E-01)
 bond charge predicted
       N       E                     dE             d eps       ncg     rms          rms(c)
DAV:   1    -0.599396792036E+02   -0.34024E-01   -0.41484E+01   384   0.401E+01    0.192E+00
DAV:   2    -0.599270685323E+02    0.12611E-01   -0.13867E+00   496   0.661E+00    0.111E+00
DAV:   3    -0.599020049975E+02    0.25064E-01   -0.91997E-02   504   0.188E+00    0.597E-01
DAV:   4    -0.598972105384E+02    0.47945E-02   -0.20917E-02   496   0.951E-01    0.196E-01
DAV:   5    -0.598971958239E+02    0.14714E-04   -0.51046E-03   480   0.399E-01    0.710E-02
DAV:   6    -0.598973144704E+02   -0.11865E-03   -0.59893E-04   496   0.132E-01    0.280E-02
DAV:   7    -0.598974945989E+02   -0.18013E-03   -0.76936E-05   320   0.493E-02    0.131E-02
DAV:   8    -0.598976999734E+02   -0.20537E-03   -0.52509E-05   336   0.354E-02    0.746E-03
DAV:   9    -0.598979227386E+02   -0.22277E-03   -0.70131E-05   336   0.336E-02    0.482E-03
DAV:  10    -0.598980356786E+02   -0.11294E-03   -0.29308E-05   320   0.192E-02    0.311E-03
DAV:  11    -0.598981020970E+02   -0.66418E-04   -0.16599E-05   320   0.151E-02
  14 F= -.59898102E+02 E0= -.59872244E+02  d E =-.257423E-01
 curvature:   3.48 expect dE= 0.107E+01 dE for cont linesearch  0.206E-01
 ZBRENT: bracketing found
 ZBRENT: interpolating
 opt :   1.0840  next Energy=   -59.910567 (dE=-0.382E-01)
 bond charge predicted
       N       E                     dE             d eps       ncg     rms          rms(c)
DAV:   1    -0.599235714001E+02   -0.25536E-01   -0.16563E+01   384   0.256E+01    0.110E+00
DAV:   2    -0.599187201697E+02    0.48512E-02   -0.42903E-01   448   0.387E+00    0.626E-01
DAV:   3    -0.599124195806E+02    0.63006E-02   -0.27336E-02   528   0.105E+00    0.316E-01
DAV:   4    -0.599112747992E+02    0.11448E-02   -0.66901E-03   464   0.548E-01    0.907E-02
DAV:   5    -0.599112380376E+02    0.36762E-04   -0.83061E-04   480   0.180E-01
  15 F= -.59911238E+02 E0= -.59886233E+02  d E =-.388783E-01
 curvature:  -0.82 expect dE=-0.818E-01 dE for cont linesearch -0.702E-07
 trial: gam= 1.64275 g(F)=  0.855E-01 g(S)=  0.142E-01 ort =-0.163E-03 (trialstep = 0.118E+00)
 search vector abs. value=  0.935E+00
 bond charge predicted
       N       E                     dE             d eps       ncg     rms          rms(c)
DAV:   1    -0.599250691400E+02   -0.13794E-01   -0.15191E+00   384   0.758E+00    0.394E-01
DAV:   2    -0.599227836535E+02    0.22855E-02   -0.45572E-02   480   0.117E+00    0.228E-01
DAV:   3    -0.599218821879E+02    0.90147E-03   -0.34866E-03   432   0.345E-01    0.121E-01
DAV:   4    -0.599217883957E+02    0.93792E-04   -0.11783E-03   496   0.237E-01    0.309E-02
DAV:   5    -0.599217933228E+02   -0.49271E-05   -0.13772E-04   320   0.856E-02
  16 F= -.59921793E+02 E0= -.59896662E+02  d E =-.105553E-01
 trial-energy change:   -0.010555  1 .order   -0.010123   -0.011737   -0.008508
 step:   0.2370(harm=  0.4290)  dis= 0.02312  next Energy=   -59.926526 (dE=-0.153E-01)
 bond charge predicted
       N       E                     dE             d eps       ncg     rms          rms(c)
DAV:   1    -0.599326596251E+02   -0.10871E-01   -0.15479E+00   384   0.765E+00    0.399E-01
DAV:   2    -0.599301279521E+02    0.25317E-02   -0.46652E-02   480   0.118E+00    0.231E-01
DAV:   3    -0.599291191483E+02    0.10088E-02   -0.35972E-03   464   0.346E-01    0.123E-01
DAV:   4    -0.599289088859E+02    0.21026E-03   -0.12319E-03   480   0.240E-01    0.320E-02
DAV:   5    -0.599289111222E+02   -0.22363E-05   -0.13657E-04   320   0.862E-02
  17 F= -.59928911E+02 E0= -.59903718E+02  d E =-.176731E-01
 curvature:  -1.25 expect dE=-0.633E-01 dE for cont linesearch -0.263E-02
 ZBRENT: increasing intervall
 opt :   0.4749  next Energy=   -59.932871 (dE=-0.216E-01)
 bond charge predicted
       N       E                     dE             d eps       ncg     rms          rms(c)
DAV:   1    -0.599491493591E+02   -0.20240E-01   -0.62000E+00   384   0.153E+01    0.817E-01
DAV:   2    -0.599385942602E+02    0.10555E-01   -0.19932E-01   480   0.241E+00    0.472E-01
DAV:   3    -0.599340638755E+02    0.45304E-02   -0.15132E-02   464   0.717E-01    0.254E-01
DAV:   4    -0.599330576141E+02    0.10063E-02   -0.49657E-03   480   0.487E-01    0.681E-02
DAV:   5    -0.599330872399E+02   -0.29626E-04   -0.69023E-04   480   0.178E-01
  18 F= -.59933087E+02 E0= -.59907940E+02  d E =-.218492E-01
 curvature:  -1.88 expect dE=-0.228E+00 dE for cont linesearch -0.213E-03
 trial: gam= 1.30003 g(F)=  0.109E+00 g(S)=  0.117E-01 ort =-0.103E-01 (trialstep = 0.106E+00)
 search vector abs. value=  0.168E+01
 bond charge predicted
       N       E                     dE             d eps       ncg     rms          rms(c)
DAV:   1    -0.599503709283E+02   -0.17313E-01   -0.20458E+00   384   0.875E+00    0.516E-01
DAV:   2    -0.599452608172E+02    0.51101E-02   -0.70199E-02   464   0.138E+00    0.298E-01
DAV:   3    -0.599434656290E+02    0.17952E-02   -0.57628E-03   472   0.428E-01    0.158E-01
DAV:   4    -0.599430335075E+02    0.43212E-03   -0.18631E-03   464   0.298E-01    0.399E-02
DAV:   5    -0.599430856761E+02   -0.52169E-04   -0.19281E-04   312   0.104E-01
  19 F= -.59943086E+02 E0= -.59917846E+02  d E =-.999844E-02
 trial-energy change:   -0.009998  1 .order   -0.009864   -0.011397   -0.008332
 step:   0.3932(harm=  0.3932)  dis= 0.04737  next Energy=   -59.954277 (dE=-0.212E-01)
 bond charge predicted
       N       E                     dE             d eps       ncg     rms          rms(c)
DAV:   1    -0.600134238100E+02   -0.70390E-01   -0.15184E+01   384   0.238E+01    0.147E+00
DAV:   2    -0.599746581406E+02    0.38766E-01   -0.59475E-01   496   0.393E+00    0.842E-01
DAV:   3    -0.599591593640E+02    0.15499E-01   -0.44301E-02   448   0.120E+00    0.449E-01
DAV:   4    -0.599552917421E+02    0.38676E-02   -0.14237E-02   464   0.829E-01    0.130E-01
DAV:   5    -0.599552236587E+02    0.68083E-04   -0.25696E-03   448   0.304E-01    0.501E-02
DAV:   6    -0.599553092330E+02   -0.85574E-04   -0.28683E-04   352   0.873E-02
  20 F= -.59955309E+02 E0= -.59930095E+02  d E =-.222220E-01
 curvature:  -3.06 expect dE=-0.192E+00 dE for cont linesearch -0.660E-04
 trial: gam= 0.35014 g(F)=  0.491E-01 g(S)=  0.137E-01 ort = 0.602E-02 (trialstep = 0.163E+00)
 search vector abs. value=  0.272E+00
 bond charge predicted
       N       E                     dE             d eps       ncg     rms          rms(c)
DAV:   1    -0.599692230590E+02   -0.13999E-01   -0.74450E-01   384   0.552E+00    0.359E-01
DAV:   2    -0.599658778819E+02    0.33452E-02   -0.29139E-02   464   0.899E-01    0.213E-01
DAV:   3    -0.599648537914E+02    0.10241E-02   -0.27603E-03   416   0.291E-01    0.112E-01
DAV:   4    -0.599645713452E+02    0.28245E-03   -0.10135E-03   496   0.204E-01    0.346E-02
DAV:   5    -0.599646452901E+02   -0.73945E-04   -0.14273E-04   352   0.799E-02
  21 F= -.59964645E+02 E0= -.59939675E+02  d E =-.933606E-02
 trial-energy change:   -0.009336  1 .order   -0.009256   -0.010595   -0.007918
 step:   0.6463(harm=  0.6463)  dis= 0.02913  next Energy=   -59.976281 (dE=-0.210E-01)
 bond charge predicted
       N       E                     dE             d eps       ncg     rms          rms(c)
DAV:   1    -0.600185488803E+02   -0.53978E-01   -0.65415E+00   384   0.163E+01    0.109E+00
DAV:   2    -0.599890602993E+02    0.29489E-01   -0.27982E-01   480   0.273E+00    0.656E-01
DAV:   3    -0.599792256655E+02    0.98346E-02   -0.25316E-02   464   0.898E-01    0.348E-01
DAV:   4    -0.599760717417E+02    0.31539E-02   -0.89565E-03   496   0.633E-01    0.109E-01
DAV:   5    -0.599760224763E+02    0.49265E-04   -0.16347E-03   496   0.247E-01    0.389E-02
DAV:   6    -0.599761000094E+02   -0.77533E-04   -0.17672E-04   336   0.763E-02
  22 F= -.59976100E+02 E0= -.59951630E+02  d E =-.207908E-01
 curvature:  -1.36 expect dE=-0.122E+00 dE for cont linesearch -0.230E-04
 trial: gam= 1.46295 g(F)=  0.822E-01 g(S)=  0.743E-02 ort = 0.215E-02 (trialstep = 0.104E+00)
 search vector abs. value=  0.679E+00
 bond charge predicted
       N       E                     dE             d eps       ncg     rms          rms(c)
DAV:   1    -0.599905684775E+02   -0.14546E-01   -0.72084E-01   384   0.546E+00    0.393E-01
DAV:   2    -0.599861122578E+02    0.44562E-02   -0.30279E-02   464   0.905E-01    0.224E-01
DAV:   3    -0.599849391408E+02    0.11731E-02   -0.30501E-03   448   0.308E-01    0.117E-01
DAV:   4    -0.599846219658E+02    0.31717E-03   -0.98800E-04   496   0.201E-01    0.366E-02
DAV:   5    -0.599846937514E+02   -0.71786E-04   -0.12198E-04   360   0.741E-02
  23 F= -.59984694E+02 E0= -.59960570E+02  d E =-.859374E-02
 ZBRENT: can't locate minimum, use default step
 trial-energy change:   -0.008594  1 .order   -0.008545   -0.009676   -0.007414
 step:   0.4170(harm=  0.4460)  dis= 0.03003  next Energy=   -59.996797 (dE=-0.207E-01)
 bond charge predicted
       N       E                     dE             d eps       ncg     rms          rms(c)
DAV:   1    -0.600515904383E+02   -0.66968E-01   -0.65229E+00   384   0.163E+01    0.121E+00
DAV:   2    -0.600112785102E+02    0.40312E-01   -0.30538E-01   464   0.280E+00    0.697E-01
DAV:   3    -0.599998435024E+02    0.11435E-01   -0.28425E-02   480   0.953E-01    0.369E-01
DAV:   4    -0.599963052385E+02    0.35383E-02   -0.91554E-03   496   0.648E-01    0.115E-01
DAV:   5    -0.599962271554E+02    0.78083E-04   -0.14640E-03   512   0.237E-01    0.378E-02
DAV:   6    -0.599963191887E+02   -0.92033E-04   -0.17275E-04   352   0.691E-02
  24 F= -.59996319E+02 E0= -.59972917E+02  d E =-.202192E-01
 curvature:  -1.62 expect dE=-0.138E+00 dE for cont linesearch -0.190E-03
 trial: gam= 0.92389 g(F)=  0.717E-01 g(S)=  0.138E-01 ort = 0.893E-02 (trialstep = 0.166E+00)
 search vector abs. value=  0.681E+00
 bond charge predicted
       N       E                     dE             d eps       ncg     rms          rms(c)
DAV:   1    -0.600243432308E+02   -0.28116E-01   -0.16924E+00   384   0.848E+00    0.651E-01
DAV:   2    -0.600130205987E+02    0.11323E-01   -0.74274E-02   472   0.137E+00    0.357E-01
DAV:   3    -0.600101508701E+02    0.28697E-02   -0.75726E-03   448   0.498E-01    0.179E-01
DAV:   4    -0.600093300557E+02    0.82081E-03   -0.22896E-03   488   0.312E-01    0.479E-02
DAV:   5    -0.600093955073E+02   -0.65452E-04   -0.26195E-04   368   0.116E-01
  25 F= -.60009396E+02 E0= -.59986556E+02  d E =-.130763E-01
 trial-energy change:   -0.013076  1 .order   -0.013229   -0.015570   -0.010889
 step:   0.5528(harm=  0.5528)  dis= 0.03950  next Energy=   -60.022213 (dE=-0.259E-01)
 bond charge predicted
       N       E                     dE             d eps       ncg     rms          rms(c)
DAV:   1    -0.601064285134E+02   -0.97098E-01   -0.92129E+00   384   0.196E+01    0.155E+00
DAV:   2    -0.600440339950E+02    0.62395E-01   -0.45128E-01   464   0.333E+00    0.864E-01
DAV:   3    -0.600269475967E+02    0.17086E-01   -0.41959E-02   448   0.120E+00    0.444E-01
DAV:   4    -0.600218027073E+02    0.51449E-02   -0.13700E-02   480   0.800E-01    0.123E-01
DAV:   5    -0.600216841033E+02    0.11860E-03   -0.20629E-03   512   0.288E-01    0.447E-02
DAV:   6    -0.600218099225E+02   -0.12582E-03   -0.26905E-04   352   0.871E-02    0.191E-02
DAV:   7    -0.600220577082E+02   -0.24779E-03   -0.84453E-05   336   0.506E-02    0.963E-03
DAV:   8    -0.600223019228E+02   -0.24421E-03   -0.64416E-05   320   0.385E-02    0.623E-03
DAV:   9    -0.600225155242E+02   -0.21360E-03   -0.71749E-05   312   0.352E-02    0.419E-03
DAV:  10    -0.600225942886E+02   -0.78764E-04   -0.18982E-05   320   0.190E-02
  26 F= -.60022594E+02 E0= -.60000708E+02  d E =-.262751E-01
 curvature:  -2.01 expect dE=-0.152E+00 dE for cont linesearch -0.670E-05
 trial: gam= 0.99569 g(F)=  0.681E-01 g(S)=  0.761E-02 ort = 0.151E-02 (trialstep = 0.220E+00)
 search vector abs. value=  0.754E+00
 bond charge predicted
       N       E                     dE             d eps       ncg     rms          rms(c)
DAV:   1    -0.600647994367E+02   -0.42284E-01   -0.34146E+00   384   0.120E+01    0.891E-01
DAV:   2    -0.600431621592E+02    0.21637E-01   -0.13833E-01   464   0.195E+00    0.487E-01
DAV:   3    -0.600376746871E+02    0.54875E-02   -0.13943E-02   464   0.722E-01    0.241E-01
DAV:   4    -0.600361091177E+02    0.15656E-02   -0.42856E-03   496   0.439E-01    0.668E-02
DAV:   5    -0.600360662344E+02    0.42883E-04   -0.58366E-04   496   0.162E-01
  27 F= -.60036066E+02 E0= -.60015392E+02  d E =-.134719E-01
 trial-energy change:   -0.013472  1 .order   -0.013931   -0.016992   -0.010871
 step:   0.6106(harm=  0.6106)  dis= 0.04579  next Energy=   -60.046178 (dE=-0.236E-01)
 bond charge predicted
       N       E                     dE             d eps       ncg     rms          rms(c)
DAV:   1    -0.601400109957E+02   -0.10390E+00   -0.10866E+01   384   0.214E+01    0.162E+00
DAV:   2    -0.600684990145E+02    0.71512E-01   -0.46650E-01   480   0.361E+00    0.887E-01
DAV:   3    -0.600497713966E+02    0.18728E-01   -0.44684E-02   464   0.133E+00    0.445E-01
DAV:   4    -0.600444626017E+02    0.53088E-02   -0.14058E-02   496   0.815E-01    0.129E-01
DAV:   5    -0.600443454243E+02    0.11718E-03   -0.22498E-03   512   0.304E-01    0.450E-02
DAV:   6    -0.600444972474E+02   -0.15182E-03   -0.30151E-04   352   0.949E-02    0.208E-02
DAV:   7    -0.600447685070E+02   -0.27126E-03   -0.10023E-04   328   0.557E-02    0.110E-02
DAV:   8    -0.600450393250E+02   -0.27082E-03   -0.78286E-05   304   0.426E-02    0.681E-03
DAV:   9    -0.600452709312E+02   -0.23161E-03   -0.89249E-05   304   0.395E-02    0.461E-03
DAV:  10    -0.600453549556E+02   -0.84024E-04   -0.24892E-05   320   0.214E-02
  28 F= -.60045355E+02 E0= -.60026387E+02  d E =-.227607E-01
 curvature:  -2.98 expect dE=-0.172E+00 dE for cont linesearch -0.165E-04
 trial: gam= 0.81157 g(F)=  0.509E-01 g(S)=  0.689E-02 ort =-0.204E-02 (trialstep = 0.298E+00)
 search vector abs. value=  0.551E+00
 bond charge predicted
       N       E                     dE             d eps       ncg     rms          rms(c)
DAV:   1    -0.600942908289E+02   -0.49020E-01   -0.48993E+00   384   0.143E+01    0.100E+00
DAV:   2    -0.600637801214E+02    0.30511E-01   -0.19734E-01   480   0.236E+00    0.544E-01
DAV:   3    -0.600570183294E+02    0.67618E-02   -0.17096E-02   448   0.834E-01    0.273E-01
DAV:   4    -0.600550790949E+02    0.19392E-02   -0.50843E-03   480   0.486E-01    0.786E-02
DAV:   5    -0.600550154927E+02    0.63602E-04   -0.79255E-04   496   0.184E-01
  29 F= -.60055015E+02 E0= -.60037428E+02  d E =-.966054E-02
 trial-energy change:   -0.009661  1 .order   -0.010222   -0.016723   -0.003720
 step:   0.4352(harm=  0.3834)  dis= 0.02734  next Energy=   -60.055816 (dE=-0.105E-01)
 bond charge predicted
       N       E                     dE             d eps       ncg     rms          rms(c)
DAV:   1    -0.600637866354E+02   -0.87075E-02   -0.10451E+00   384   0.664E+00    0.460E-01
DAV:   2    -0.600570404034E+02    0.67462E-02   -0.38869E-02   480   0.106E+00    0.245E-01
DAV:   3    -0.600555581119E+02    0.14823E-02   -0.38176E-03   512   0.394E-01    0.117E-01
DAV:   4    -0.600552274894E+02    0.33062E-03   -0.87862E-04   480   0.197E-01    0.351E-02
DAV:   5    -0.600552965687E+02   -0.69079E-04   -0.11121E-04   336   0.701E-02
  30 F= -.60055297E+02 E0= -.60038057E+02  d E =-.994161E-02
 curvature:  -1.19 expect dE=-0.828E-01 dE for cont linesearch -0.139E-03
 trial: gam= 1.29437 g(F)=  0.662E-01 g(S)=  0.346E-02 ort =-0.804E-02 (trialstep = 0.185E+00)
 search vector abs. value=  0.972E+00
 bond charge predicted
       N       E                     dE             d eps       ncg     rms          rms(c)
DAV:   1    -0.600868765958E+02   -0.31649E-01   -0.33322E+00   384   0.116E+01    0.777E-01
DAV:   2    -0.600693047311E+02    0.17572E-01   -0.11379E-01   464   0.182E+00    0.422E-01
DAV:   3    -0.600651901304E+02    0.41146E-02   -0.10750E-02   480   0.664E-01    0.204E-01
DAV:   4    -0.600641334260E+02    0.10567E-02   -0.25125E-03   472   0.339E-01    0.596E-02
DAV:   5    -0.600641586650E+02   -0.25239E-04   -0.29766E-04   336   0.118E-01
  31 F= -.60064159E+02 E0= -.60047604E+02  d E =-.886210E-02
 trial-energy change:   -0.008862  1 .order   -0.009098   -0.010941   -0.007255
 step:   0.5476(harm=  0.5476)  dis= 0.04509  next Energy=   -60.071532 (dE=-0.162E-01)
 bond charge predicted
       N       E                     dE             d eps       ncg     rms          rms(c)
DAV:   1    -0.601641319806E+02   -0.99999E-01   -0.13005E+01   384   0.228E+01    0.158E+00
DAV:   2    -0.600925718846E+02    0.71560E-01   -0.49228E-01   472   0.367E+00    0.855E-01
DAV:   3    -0.600760430907E+02    0.16529E-01   -0.42622E-02   480   0.132E+00    0.430E-01
DAV:   4    -0.600712461261E+02    0.47970E-02   -0.10908E-02   456   0.690E-01    0.125E-01
DAV:   5    -0.600711482846E+02    0.97842E-04   -0.14619E-03   456   0.250E-01    0.410E-02
DAV:   6    -0.600713623641E+02   -0.21408E-03   -0.24593E-04   352   0.913E-02    0.187E-02
DAV:   7    -0.600715988740E+02   -0.23651E-03   -0.78839E-05   320   0.507E-02    0.106E-02
DAV:   8    -0.600718655165E+02   -0.26664E-03   -0.76000E-05   320   0.409E-02    0.667E-03
DAV:   9    -0.600720883009E+02   -0.22278E-03   -0.89278E-05   304   0.389E-02    0.440E-03
DAV:  10    -0.600721603144E+02   -0.72013E-04   -0.21889E-05   368   0.205E-02
  32 F= -.60072160E+02 E0= -.60056817E+02  d E =-.168637E-01
 curvature:  -4.49 expect dE=-0.562E+00 dE for cont linesearch -0.643E-04
 trial: gam= 1.32479 g(F)=  0.104E+00 g(S)=  0.215E-01 ort = 0.373E-02 (trialstep = 0.136E+00)
 search vector abs. value=  0.184E+01
 bond charge predicted
       N       E                     dE             d eps       ncg     rms          rms(c)
DAV:   1    -0.601070689804E+02   -0.34981E-01   -0.35526E+00   384   0.120E+01    0.761E-01
DAV:   2    -0.600930945596E+02    0.13974E-01   -0.10299E-01   480   0.182E+00    0.415E-01
DAV:   3    -0.600890251043E+02    0.40695E-02   -0.11453E-02   496   0.688E-01    0.180E-01
DAV:   4    -0.600882846043E+02    0.74050E-03   -0.18512E-03   496   0.297E-01    0.571E-02
DAV:   5    -0.600882578461E+02    0.26758E-04   -0.22442E-04   336   0.101E-01
  33 F= -.60088258E+02 E0= -.60073442E+02  d E =-.160975E-01
 ZBRENT: can't locate minimum, use default step
 trial-energy change:   -0.016098  1 .order   -0.016369   -0.017649   -0.015088
 step:   0.5431(harm=  0.9355)  dis= 0.06159  next Energy=   -60.132962 (dE=-0.608E-01)
 bond charge predicted
       N       E                     dE             d eps       ncg     rms          rms(c)
DAV:   1    -0.603097902897E+02   -0.22151E+00   -0.32258E+01   384   0.360E+01    0.243E+00
DAV:   2    -0.601679944154E+02    0.14180E+00   -0.11112E+00   480   0.583E+00    0.131E+00
DAV:   3    -0.601300017400E+02    0.37993E-01   -0.98247E-02   464   0.207E+00    0.642E-01
DAV:   4    -0.601205159230E+02    0.94858E-02   -0.24589E-02   496   0.104E+00    0.204E-01
DAV:   5    -0.601201207596E+02    0.39516E-03   -0.39635E-03   496   0.391E-01    0.656E-02
DAV:   6    -0.601203108305E+02   -0.19007E-03   -0.57310E-04   480   0.130E-01    0.290E-02
DAV:   7    -0.601206441335E+02   -0.33330E-03   -0.13105E-04   336   0.567E-02    0.153E-02
DAV:   8    -0.601210327031E+02   -0.38857E-03   -0.14024E-04   320   0.491E-02    0.101E-02
DAV:   9    -0.601213413428E+02   -0.30864E-03   -0.13042E-04   352   0.425E-02    0.621E-03
DAV:  10    -0.601214598880E+02   -0.11855E-03   -0.46105E-05   368   0.272E-02    0.400E-03
DAV:  11    -0.601215020793E+02   -0.42191E-04   -0.14209E-05   336   0.172E-02
  34 F= -.60121502E+02 E0= -.60107991E+02  d E =-.493418E-01
 curvature:  -5.03 expect dE=-0.678E+00 dE for cont linesearch -0.745E-02
 ZBRENT: increasing intervall
 opt :   1.3578  next Energy=   -60.116041 (dE=-0.439E-01)
 bond charge predicted
       N       E                     dE             d eps       ncg     rms          rms(c)
DAV:   1    -0.609410257367E+02   -0.81957E+00   -0.13516E+02   384   0.764E+01    0.540E+00
DAV:   2    -0.603026149300E+02    0.63841E+00   -0.68398E+00   496   0.137E+01    0.275E+00
DAV:   3    -0.601486733812E+02    0.15394E+00   -0.47103E-01   440   0.457E+00    0.145E+00
DAV:   4    -0.601049491383E+02    0.43724E-01   -0.14143E-01   488   0.229E+00    0.522E-01
DAV:   5    -0.601006944350E+02    0.42547E-02   -0.24052E-02   488   0.856E-01    0.176E-01
DAV:   6    -0.601008607002E+02   -0.16627E-03   -0.31493E-03   496   0.340E-01    0.710E-02
DAV:   7    -0.601016068516E+02   -0.74615E-03   -0.66004E-04   416   0.142E-01    0.344E-02
DAV:   8    -0.601025012244E+02   -0.89437E-03   -0.49563E-04   400   0.983E-02    0.197E-02
DAV:   9    -0.601029326446E+02   -0.43142E-03   -0.15851E-04   336   0.569E-02    0.130E-02
DAV:  10    -0.601033434067E+02   -0.41076E-03   -0.31298E-04   400   0.652E-02    0.966E-03
DAV:  11    -0.601034213928E+02   -0.77986E-04   -0.32799E-05   376   0.324E-02
  35 F= -.60103421E+02 E0= -.60091770E+02  d E =-.312611E-01
 curvature:   3.69 expect dE= 0.352E+01 dE for cont linesearch  0.181E-01
 ZBRENT: bracketing found
 ZBRENT: interpolating
 opt :   0.8321  next Energy=   -60.129045 (dE=-0.569E-01)
 bond charge predicted
       N       E                     dE             d eps       ncg     rms          rms(c)
DAV:   1    -0.604024275119E+02   -0.29908E+00   -0.59956E+01   384   0.538E+01    0.303E+00
DAV:   2    -0.602242330334E+02    0.17819E+00   -0.16936E+00   496   0.848E+00    0.163E+00
DAV:   3    -0.601334632896E+02    0.90770E-01   -0.40808E-01   480   0.329E+00    0.492E-01
DAV:   4    -0.601281144542E+02    0.53488E-02   -0.25446E-02   512   0.952E-01    0.248E-01
DAV:   5    -0.601262591127E+02    0.18553E-02   -0.43666E-03   544   0.374E-01    0.851E-02
DAV:   6    -0.601260290046E+02    0.23011E-03   -0.67551E-04   496   0.145E-01    0.369E-02
DAV:   7    -0.601260364283E+02   -0.74237E-05   -0.15757E-04   368   0.688E-02
  36 F= -.60126036E+02 E0= -.60113613E+02  d E =-.538761E-01
 curvature:  -1.54 expect dE=-0.474E+00 dE for cont linesearch -0.299E-05
 trial: gam= 2.63223 g(F)=  0.293E+00 g(S)=  0.143E-01 ort =-0.189E-02 (trialstep = 0.388E-01)
 search vector abs. value=  0.131E+02
 bond charge predicted
       N       E                     dE             d eps       ncg     rms          rms(c)
DAV:   1    -0.601482206516E+02   -0.22192E-01   -0.21011E+00   384   0.919E+00    0.572E-01
DAV:   2    -0.601407857283E+02    0.74349E-02   -0.58927E-02   512   0.137E+00    0.306E-01
DAV:   3    -0.601388048158E+02    0.19809E-02   -0.65975E-03   496   0.522E-01    0.123E-01
DAV:   4    -0.601386502001E+02    0.15462E-03   -0.88514E-04   448   0.204E-01    0.419E-02
DAV:   5    -0.601386875857E+02   -0.37386E-04   -0.11694E-04   336   0.711E-02
  37 F= -.60138688E+02 E0= -.60126367E+02  d E =-.126512E-01
 ZBRENT: can't locate minimum, use default step
 trial-energy change:   -0.012651  1 .order   -0.011667   -0.011735   -0.011598
 step:   0.1552(harm=  3.3091)  dis= 0.04903  next Energy=   -60.626587 (dE=-0.501E+00)
 bond charge predicted
       N       E                     dE             d eps       ncg     rms          rms(c)
DAV:   1    -0.602752215505E+02   -0.13657E+00   -0.18953E+01   384   0.274E+01    0.179E+00
DAV:   2    -0.601947937540E+02    0.80428E-01   -0.61001E-01   480   0.441E+00    0.957E-01
DAV:   3    -0.601741516007E+02    0.20642E-01   -0.55721E-02   448   0.160E+00    0.445E-01
DAV:   4    -0.601698492223E+02    0.43024E-02   -0.12683E-02   496   0.754E-01    0.144E-01
DAV:   5    -0.601696683380E+02    0.18088E-03   -0.20547E-03   448   0.283E-01    0.472E-02
DAV:   6    -0.601697855563E+02   -0.11722E-03   -0.30285E-04   352   0.969E-02    0.199E-02
DAV:   7    -0.601699852971E+02   -0.19974E-03   -0.75742E-05   320   0.519E-02    0.108E-02
DAV:   8    -0.601702287007E+02   -0.24340E-03   -0.63827E-05   320   0.384E-02    0.628E-03
DAV:   9    -0.601704205054E+02   -0.19180E-03   -0.60853E-05   336   0.312E-02    0.387E-03
DAV:  10    -0.601705018143E+02   -0.81309E-04   -0.26904E-05   360   0.197E-02
  38 F= -.60170502E+02 E0= -.60158664E+02  d E =-.444654E-01
 curvature:  -4.99 expect dE=-0.127E+01 dE for cont linesearch -0.230E-01
 ZBRENT: increasing intervall
 opt :   0.3879  next Energy=   -60.214998 (dE=-0.890E-01)
 bond charge predicted
       N       E                     dE             d eps       ncg     rms          rms(c)
DAV:   1    -0.606712318507E+02   -0.50081E+00   -0.77739E+01   384   0.561E+01    0.390E+00
DAV:   2    -0.603145916298E+02    0.35664E+00   -0.33012E+00   496   0.988E+00    0.201E+00
DAV:   3    -0.602299437317E+02    0.84648E-01   -0.24972E-01   480   0.335E+00    0.102E+00
DAV:   4    -0.602087963380E+02    0.21147E-01   -0.61271E-02   512   0.160E+00    0.352E-01
DAV:   5    -0.602070892388E+02    0.17071E-02   -0.99879E-03   528   0.563E-01    0.113E-01
DAV:   6    -0.602072507761E+02   -0.16154E-03   -0.13022E-03   496   0.202E-01    0.461E-02
DAV:   7    -0.602077504459E+02   -0.49967E-03   -0.27009E-04   368   0.892E-02    0.226E-02
DAV:   8    -0.602083057059E+02   -0.55526E-03   -0.28032E-04   400   0.728E-02    0.156E-02
DAV:   9    -0.602086731399E+02   -0.36743E-03   -0.14684E-04   336   0.540E-02    0.893E-03
DAV:  10    -0.602088757981E+02   -0.20266E-03   -0.11161E-04   352   0.430E-02    0.718E-03
DAV:  11    -0.602089354606E+02   -0.59663E-04   -0.25711E-05   376   0.252E-02
  39 F= -.60208935E+02 E0= -.60198031E+02  d E =-.828990E-01
 curvature:  -9.67 expect dE=-0.321E+01 dE for cont linesearch -0.659E-02
 ZBRENT: increasing intervall
 opt :   0.8534  next Energy=   -60.182637 (dE=-0.566E-01)
 bond charge predicted
       N       E                     dE             d eps       ncg     rms          rms(c)
DAV:   1    -0.621249284294E+02   -0.19161E+01   -0.35082E+02   384   0.133E+02    0.880E+00
DAV:   2    -0.605524120898E+02    0.15725E+01   -0.17210E+01   464   0.230E+01    0.423E+00
DAV:   3    -0.602230746357E+02    0.32934E+00   -0.11907E+00   496   0.726E+00    0.227E+00
DAV:   4    -0.601449118751E+02    0.78163E-01   -0.20814E-01   504   0.294E+00    0.865E-01
DAV:   5    -0.601371445936E+02    0.77673E-02   -0.25620E-02   488   0.954E-01    0.248E-01
DAV:   6    -0.601382915541E+02   -0.11470E-02   -0.49762E-03   464   0.371E-01    0.890E-02
DAV:   7    -0.601394870162E+02   -0.11955E-02   -0.10156E-03   464   0.171E-01    0.460E-02
DAV:   8    -0.601405866634E+02   -0.10996E-02   -0.85382E-04   400   0.125E-01    0.275E-02
DAV:   9    -0.601413636382E+02   -0.77697E-03   -0.49710E-04   408   0.934E-02    0.192E-02
DAV:  10    -0.601418069973E+02   -0.44336E-03   -0.28972E-04   400   0.662E-02    0.127E-02
DAV:  11    -0.601419662979E+02   -0.15930E-03   -0.87248E-05   368   0.393E-02    0.654E-03
DAV:  12    -0.601420306662E+02   -0.64368E-04   -0.33546E-05   368   0.277E-02
  40 F= -.60142031E+02 E0= -.60132020E+02  d E =-.159942E-01
 curvature:  38.63 expect dE= 0.504E+02 dE for cont linesearch  0.426E+00
 ZBRENT: bracketing found
 ZBRENT: interpolating
 opt :   0.4806  next Energy=   -60.213305 (dE=-0.873E-01)
 bond charge predicted
       N       E                     dE             d eps       ncg     rms          rms(c)
DAV:   1    -0.610760274310E+02   -0.93406E+00   -0.25054E+02   384   0.121E+02    0.577E+00
DAV:   2    -0.606088808030E+02    0.46715E+00   -0.72590E+00   416   0.189E+01    0.317E+00
DAV:   3    -0.602280580280E+02    0.38082E+00   -0.13650E+00   448   0.630E+00    0.833E-01
DAV:   4    -0.602135151252E+02    0.14543E-01   -0.56737E-02   512   0.161E+00    0.426E-01
DAV:   5    -0.602065643039E+02    0.69508E-02   -0.17715E-02   512   0.740E-01    0.128E-01
DAV:   6    -0.602059437224E+02    0.62058E-03   -0.20280E-03   560   0.285E-01    0.679E-02
DAV:   7    -0.602058783343E+02    0.65388E-04   -0.66959E-04   480   0.131E-01
  41 F= -.60205878E+02 E0= -.60196251E+02  d E =-.798419E-01
 curvature:  -0.40 expect dE=-0.166E+00 dE for cont linesearch -0.284E-05
 trial: gam= 0.82947 g(F)=  0.364E+00 g(S)=  0.546E-01 ort =-0.967E-02 (trialstep = 0.127E+00)
 search vector abs. value=  0.939E+01
 bond charge predicted
       N       E                     dE             d eps       ncg     rms          rms(c)
DAV:   1    -0.603283387760E+02   -0.12240E+00   -0.16609E+01   384   0.257E+01    0.158E+00
DAV:   2    -0.602692063395E+02    0.59132E-01   -0.50787E-01   512   0.410E+00    0.827E-01
DAV:   3    -0.602553006785E+02    0.13906E-01   -0.43199E-02   512   0.142E+00    0.366E-01
DAV:   4    -0.602529341558E+02    0.23665E-02   -0.79745E-03   496   0.609E-01    0.115E-01
DAV:   5    -0.602528261709E+02    0.10798E-03   -0.82132E-04   488   0.184E-01    0.402E-02
DAV:   6    -0.602528989901E+02   -0.72819E-04   -0.12208E-04   352   0.672E-02
  42 F= -.60252899E+02 E0= -.60242801E+02  d E =-.470207E-01
 trial-energy change:   -0.047021  1 .order   -0.043803   -0.052200   -0.035405
 step:   0.2175(harm=  0.3952)  dis= 0.06175  next Energy=   -60.266633 (dE=-0.608E-01)
 bond charge predicted
       N       E                     dE             d eps       ncg     rms          rms(c)
DAV:   1    -0.603137985818E+02   -0.60972E-01   -0.84631E+00   384   0.184E+01    0.113E+00
DAV:   2    -0.602817094384E+02    0.32089E-01   -0.24906E-01   480   0.287E+00    0.587E-01
DAV:   3    -0.602735724790E+02    0.81370E-02   -0.24505E-02   512   0.104E+00    0.244E-01
DAV:   4    -0.602723520609E+02    0.12204E-02   -0.35414E-03   496   0.403E-01    0.807E-02
DAV:   5    -0.602723812046E+02   -0.29144E-04   -0.39049E-04   456   0.122E-01
  43 F= -.60272381E+02 E0= -.60262130E+02  d E =-.665029E-01
 curvature:  -2.53 expect dE=-0.431E+00 dE for cont linesearch -0.709E-02
 ZBRENT: increasing intervall
 opt :   0.3982  next Energy=   -60.280670 (dE=-0.748E-01)
 bond charge predicted
       N       E                     dE             d eps       ncg     rms          rms(c)
DAV:   1    -0.604642645983E+02   -0.19191E+00   -0.34123E+01   384   0.370E+01    0.239E+00
DAV:   2    -0.603172227170E+02    0.14704E+00   -0.11882E+00   480   0.609E+00    0.122E+00
DAV:   3    -0.602861307813E+02    0.31092E-01   -0.92064E-02   520   0.209E+00    0.580E-01
DAV:   4    -0.602790857533E+02    0.70450E-02   -0.18586E-02   480   0.936E-01    0.182E-01
DAV:   5    -0.602788477808E+02    0.23797E-03   -0.19891E-03   480   0.285E-01    0.632E-02
DAV:   6    -0.602791354918E+02   -0.28771E-03   -0.39291E-04   328   0.120E-01    0.235E-02
DAV:   7    -0.602794251585E+02   -0.28967E-03   -0.11250E-04   352   0.624E-02    0.133E-02
DAV:   8    -0.602797395389E+02   -0.31438E-03   -0.10863E-04   344   0.497E-02    0.787E-03
DAV:   9    -0.602799880139E+02   -0.24848E-03   -0.12220E-04   368   0.434E-02    0.587E-03
DAV:  10    -0.602800629671E+02   -0.74953E-04   -0.26738E-05   368   0.233E-02
  44 F= -.60280063E+02 E0= -.60269382E+02  d E =-.741846E-01
 curvature:  -2.96 expect dE=-0.116E+01 dE for cont linesearch -0.167E-02
 trial: gam= 1.04680 g(F)=  0.319E+00 g(S)=  0.722E-01 ort =-0.727E-01 (trialstep = 0.162E+00)
 search vector abs. value=  0.105E+02
 bond charge predicted
       N       E                     dE             d eps       ncg     rms          rms(c)
DAV:   1    -0.604696042968E+02   -0.18962E+00   -0.30676E+01   384   0.349E+01    0.217E+00
DAV:   2    -0.603527915375E+02    0.11681E+00   -0.92666E-01   496   0.559E+00    0.110E+00
DAV:   3    -0.603274119415E+02    0.25380E-01   -0.80377E-02   496   0.194E+00    0.505E-01
DAV:   4    -0.603224868403E+02    0.49251E-02   -0.12477E-02   480   0.754E-01    0.170E-01
DAV:   5    -0.603221982341E+02    0.28861E-03   -0.13716E-03   448   0.243E-01    0.535E-02
DAV:   6    -0.603223801039E+02   -0.18187E-03   -0.26171E-04   376   0.101E-01    0.198E-02
DAV:   7    -0.603226007685E+02   -0.22066E-03   -0.88848E-05   352   0.543E-02    0.107E-02
DAV:   8    -0.603228154735E+02   -0.21471E-03   -0.59310E-05   352   0.395E-02    0.667E-03
DAV:   9    -0.603230468094E+02   -0.23134E-03   -0.10939E-04   360   0.401E-02    0.486E-03
DAV:  10    -0.603231078118E+02   -0.61002E-04   -0.18695E-05   368   0.209E-02
  45 F= -.60323108E+02 E0= -.60313618E+02  d E =-.430448E-01
 trial-energy change:   -0.043045  1 .order   -0.043792   -0.051007   -0.036577
 step:   0.5717(harm=  0.5717)  dis= 0.18222  next Energy=   -60.370214 (dE=-0.902E-01)
 bond charge predicted
       N       E                     dE             d eps       ncg     rms          rms(c)
DAV:   1    -0.613143847496E+02   -0.99134E+00   -0.21052E+02   384   0.992E+01    0.632E+00
DAV:   2    -0.605564435716E+02    0.75794E+00   -0.96158E+00   512   0.181E+01    0.298E+00
DAV:   3    -0.604025914082E+02    0.15385E+00   -0.61965E-01   448   0.547E+00    0.157E+00
DAV:   4    -0.603666136066E+02    0.35978E-01   -0.10089E-01   448   0.204E+00    0.582E-01
DAV:   5    -0.603630882472E+02    0.35254E-02   -0.13170E-02   496   0.698E-01    0.164E-01
DAV:   6    -0.603635006801E+02   -0.41243E-03   -0.21976E-03   528   0.265E-01    0.623E-02
DAV:   7    -0.603642136868E+02   -0.71301E-03   -0.48243E-04   384   0.117E-01    0.317E-02
DAV:   8    -0.603650034430E+02   -0.78976E-03   -0.45059E-04   384   0.949E-02    0.208E-02
DAV:   9    -0.603657672543E+02   -0.76381E-03   -0.47629E-04   400   0.867E-02    0.141E-02
DAV:  10    -0.603660656779E+02   -0.29842E-03   -0.11575E-04   344   0.505E-02    0.894E-03
DAV:  11    -0.603662251969E+02   -0.15952E-03   -0.76888E-05   360   0.380E-02    0.532E-03
DAV:  12    -0.603662644977E+02   -0.39301E-04   -0.13887E-05   384   0.189E-02
  46 F= -.60366264E+02 E0= -.60359507E+02  d E =-.862015E-01
 curvature:  -9.54 expect dE=-0.247E+01 dE for cont linesearch -0.135E-04
 trial: gam= 0.11460 g(F)=  0.207E+00 g(S)=  0.510E-01 ort = 0.386E-02 (trialstep = 0.244E+00)
 search vector abs. value=  0.398E+00
 bond charge predicted
       N       E                     dE             d eps       ncg     rms          rms(c)
DAV:   1    -0.604053394350E+02   -0.39114E-01   -0.27843E+00   384   0.117E+01    0.551E-01
DAV:   2    -0.604049504035E+02    0.38903E-03   -0.75580E-02   512   0.186E+00    0.333E-01
DAV:   3    -0.604026156171E+02    0.23348E-02   -0.12702E-02   448   0.762E-01    0.988E-02
DAV:   4    -0.604025213512E+02    0.94266E-04   -0.14397E-03   504   0.240E-01    0.526E-02
DAV:   5    -0.604025061643E+02    0.15187E-04   -0.14534E-04   320   0.811E-02
  47 F= -.60402506E+02 E0= -.60396209E+02  d E =-.362417E-01
 trial-energy change:   -0.036242  1 .order   -0.035905   -0.063093   -0.008716
 step:   0.2828(harm=  0.2828)  dis= 0.01609  next Energy=   -60.402868 (dE=-0.366E-01)
 bond charge predicted
       N       E                     dE             d eps       ncg     rms          rms(c)
DAV:   1    -0.604033821738E+02   -0.86082E-03   -0.72479E-02   384   0.190E+00    0.903E-02
DAV:   2    -0.604033740243E+02    0.81495E-05   -0.19559E-03   512   0.301E-01    0.543E-02
DAV:   3    -0.604033209110E+02    0.53113E-04   -0.34823E-04   432   0.123E-01
  48 F= -.60403321E+02 E0= -.60397077E+02  d E =-.370564E-01
 curvature:  -0.22 expect dE=-0.282E-01 dE for cont linesearch -0.212E-06
 trial: gam= 0.50359 g(F)=  0.101E+00 g(S)=  0.285E-01 ort = 0.623E-03 (trialstep = 0.252E+00)
 search vector abs. value=  0.231E+00
 bond charge predicted
       N       E                     dE             d eps       ncg     rms          rms(c)
DAV:   1    -0.604277599886E+02   -0.24386E-01   -0.15074E+00   384   0.801E+00    0.373E-01
DAV:   2    -0.604290370870E+02   -0.12771E-02   -0.33366E-02   544   0.119E+00    0.240E-01
DAV:   3    -0.604282410001E+02    0.79609E-03   -0.30371E-03   480   0.454E-01    0.490E-02
DAV:   4    -0.604282373474E+02    0.36527E-05   -0.38366E-04   408   0.136E-01
  49 F= -.60428237E+02 E0= -.60421500E+02  d E =-.249164E-01
 trial-energy change:   -0.024916  1 .order   -0.024537   -0.032760   -0.016315
 step:   0.5011(harm=  0.5011)  dis= 0.02238  next Energy=   -60.435952 (dE=-0.326E-01)
 bond charge predicted
       N       E                     dE             d eps       ncg     rms          rms(c)
DAV:   1    -0.604363932379E+02   -0.81522E-02   -0.14895E+00   384   0.796E+00    0.371E-01
DAV:   2    -0.604376800656E+02   -0.12868E-02   -0.33045E-02   544   0.118E+00    0.239E-01
DAV:   3    -0.604369037712E+02    0.77629E-03   -0.30487E-03   480   0.453E-01    0.498E-02
DAV:   4    -0.604368936056E+02    0.10166E-04   -0.39429E-04   416   0.138E-01
  50 F= -.60436894E+02 E0= -.60429664E+02  d E =-.335727E-01
 curvature:  -0.45 expect dE=-0.646E-01 dE for cont linesearch -0.158E-10
 trial: gam= 1.10226 g(F)=  0.107E+00 g(S)=  0.386E-01 ort =-0.286E-05 (trialstep = 0.164E+00)
 search vector abs. value=  0.426E+00
 bond charge predicted
       N       E                     dE             d eps       ncg     rms          rms(c)
DAV:   1    -0.604555778758E+02   -0.18674E-01   -0.12573E+00   384   0.721E+00    0.261E-01
DAV:   2    -0.604574236985E+02   -0.18458E-02   -0.28780E-02   544   0.111E+00    0.156E-01
DAV:   3    -0.604571542609E+02    0.26944E-03   -0.18864E-03   640   0.308E-01    0.538E-02
DAV:   4    -0.604571370874E+02    0.17174E-04   -0.18597E-04   400   0.929E-02
  51 F= -.60457137E+02 E0= -.60449330E+02  d E =-.202435E-01
 trial-energy change:   -0.020243  1 .order   -0.020177   -0.023754   -0.016601
 step:   0.5434(harm=  0.5434)  dis= 0.03075  next Energy=   -60.476335 (dE=-0.394E-01)
 bond charge predicted
       N       E                     dE             d eps       ncg     rms          rms(c)
DAV:   1    -0.604682275131E+02   -0.11073E-01   -0.68175E+00   384   0.169E+01    0.604E-01
DAV:   2    -0.604787250853E+02   -0.10498E-01   -0.16257E-01   544   0.262E+00    0.360E-01
DAV:   3    -0.604772785248E+02    0.14466E-02   -0.10181E-02   592   0.707E-01    0.126E-01
DAV:   4    -0.604771829915E+02    0.95533E-04   -0.11288E-03   512   0.223E-01    0.499E-02
DAV:   5    -0.604771896825E+02   -0.66910E-05   -0.16415E-04   384   0.860E-02
  52 F= -.60477190E+02 E0= -.60467796E+02  d E =-.402961E-01
 curvature:  -0.80 expect dE=-0.103E+00 dE for cont linesearch -0.335E-04
 trial: gam= 0.88559 g(F)=  0.114E+00 g(S)=  0.156E-01 ort = 0.423E-02 (trialstep = 0.217E+00)
 search vector abs. value=  0.471E+00
 bond charge predicted
       N       E                     dE             d eps       ncg     rms          rms(c)
DAV:   1    -0.604974418689E+02   -0.20259E-01   -0.23522E+00   384   0.995E+00    0.372E-01
DAV:   2    -0.605004498704E+02   -0.30080E-02   -0.55116E-02   528   0.150E+00    0.232E-01
DAV:   3    -0.604997786545E+02    0.67122E-03   -0.34256E-03   512   0.391E-01    0.986E-02
DAV:   4    -0.604997259740E+02    0.52680E-04   -0.36546E-04   432   0.138E-01
  53 F= -.60499726E+02 E0= -.60490092E+02  d E =-.225363E-01
 trial-energy change:   -0.022536  1 .order   -0.022374   -0.028829   -0.015919
 step:   0.4842(harm=  0.4842)  dis= 0.02621  next Energy=   -60.509379 (dE=-0.322E-01)
 bond charge predicted
       N       E                     dE             d eps       ncg     rms          rms(c)
DAV:   1    -0.605065966739E+02   -0.68180E-02   -0.35893E+00   384   0.123E+01    0.460E-01
DAV:   2    -0.605112466758E+02   -0.46500E-02   -0.85109E-02   528   0.185E+00    0.286E-01
DAV:   3    -0.605102328174E+02    0.10139E-02   -0.52158E-03   512   0.479E-01    0.125E-01
DAV:   4    -0.605101451624E+02    0.87655E-04   -0.59940E-04   496   0.172E-01
  54 F= -.60510145E+02 E0= -.60500134E+02  d E =-.329555E-01
 curvature:  -0.86 expect dE=-0.852E-01 dE for cont linesearch -0.560E-05
 trial: gam= 0.80642 g(F)=  0.612E-01 g(S)=  0.381E-01 ort = 0.175E-02 (trialstep = 0.270E+00)
 search vector abs. value=  0.408E+00
 bond charge predicted
       N       E                     dE             d eps       ncg     rms          rms(c)
DAV:   1    -0.605322407328E+02   -0.22008E-01   -0.30096E+00   384   0.111E+01    0.446E-01
DAV:   2    -0.605344932014E+02   -0.22525E-02   -0.61840E-02   576   0.161E+00    0.265E-01
DAV:   3    -0.605334863935E+02    0.10068E-02   -0.50318E-03   496   0.484E-01    0.912E-02
DAV:   4    -0.605334479251E+02    0.38468E-04   -0.51430E-04   496   0.152E-01
  55 F= -.60533448E+02 E0= -.60522701E+02  d E =-.233028E-01
 trial-energy change:   -0.023303  1 .order   -0.022904   -0.027235   -0.018572
 step:   0.8497(harm=  0.8497)  dis= 0.04645  next Energy=   -60.552957 (dE=-0.428E-01)
 bond charge predicted
       N       E                     dE             d eps       ncg     rms          rms(c)
DAV:   1    -0.605492470530E+02   -0.15761E-01   -0.13886E+01   384   0.240E+01    0.977E-01
DAV:   2    -0.605599113870E+02   -0.10664E-01   -0.30280E-01   568   0.362E+00    0.573E-01
DAV:   3    -0.605552859665E+02    0.46254E-02   -0.22521E-02   480   0.104E+00    0.207E-01
DAV:   4    -0.605549916058E+02    0.29436E-03   -0.23840E-03   528   0.322E-01    0.796E-02
DAV:   5    -0.605550106424E+02   -0.19037E-04   -0.24138E-04   368   0.109E-01
  56 F= -.60555011E+02 E0= -.60542881E+02  d E =-.448655E-01
 curvature:  -1.72 expect dE=-0.260E+00 dE for cont linesearch -0.323E-04
 trial: gam= 1.52938 g(F)=  0.140E+00 g(S)=  0.106E-01 ort = 0.277E-02 (trialstep = 0.141E+00)
 search vector abs. value=  0.112E+01
 bond charge predicted
       N       E                     dE             d eps       ncg     rms          rms(c)
DAV:   1    -0.605755090596E+02   -0.20517E-01   -0.21568E+00   384   0.950E+00    0.410E-01
DAV:   2    -0.605757730356E+02   -0.26398E-03   -0.45250E-02   528   0.136E+00    0.239E-01
DAV:   3    -0.605747719998E+02    0.10010E-02   -0.46946E-03   528   0.460E-01    0.722E-02
DAV:   4    -0.605747599478E+02    0.12052E-04   -0.34325E-04   400   0.130E-01
  57 F= -.60574760E+02 E0= -.60563192E+02  d E =-.197493E-01
 trial-energy change:   -0.019749  1 .order   -0.019291   -0.021976   -0.016607
 step:   0.3383(harm=  0.5791)  dis= 0.03144  next Energy=   -60.587544 (dE=-0.325E-01)
 bond charge predicted
       N       E                     dE             d eps       ncg     rms          rms(c)
DAV:   1    -0.605949402626E+02   -0.20168E-01   -0.41829E+00   384   0.132E+01    0.580E-01
DAV:   2    -0.605952529221E+02   -0.31266E-03   -0.88446E-02   544   0.192E+00    0.336E-01
DAV:   3    -0.605932428221E+02    0.20101E-02   -0.92575E-03   512   0.649E-01    0.101E-01
DAV:   4    -0.605932106821E+02    0.32140E-04   -0.73624E-04   496   0.186E-01
  58 F= -.60593211E+02 E0= -.60582311E+02  d E =-.382000E-01
 curvature:  -1.45 expect dE=-0.119E+00 dE for cont linesearch -0.504E-02
 ZBRENT: increasing intervall
 opt :   0.7319  next Energy=   -60.596012 (dE=-0.410E-01)
 bond charge predicted
       N       E                     dE             d eps       ncg     rms          rms(c)
DAV:   1    -0.606051273473E+02   -0.11885E-01   -0.16837E+01   384   0.266E+01    0.119E+00
DAV:   2    -0.606058998638E+02   -0.77252E-03   -0.37801E-01   528   0.406E+00    0.682E-01
DAV:   3    -0.605976877356E+02    0.82121E-02   -0.37466E-02   512   0.133E+00    0.213E-01
DAV:   4    -0.605974822590E+02    0.20548E-03   -0.29697E-03   520   0.372E-01    0.875E-02
DAV:   5    -0.605975244341E+02   -0.42175E-04   -0.38284E-04   416   0.131E-01
  59 F= -.60597524E+02 E0= -.60587879E+02  d E =-.425138E-01
 curvature:  -0.81 expect dE=-0.269E+00 dE for cont linesearch -0.161E-02
 ZBRENT: bracketing found
 ZBRENT: interpolating
 opt :   0.5622  next Energy=   -60.601528 (dE=-0.465E-01)
 bond charge predicted
       N       E                     dE             d eps       ncg     rms          rms(c)
DAV:   1    -0.606022171007E+02   -0.47348E-02   -0.31627E+00   384   0.117E+01    0.505E-01
DAV:   2    -0.606028398875E+02   -0.62279E-03   -0.69239E-02   544   0.164E+00    0.295E-01
DAV:   3    -0.606012514726E+02    0.15884E-02   -0.82267E-03   576   0.579E-01    0.826E-02
DAV:   4    -0.606011988888E+02    0.52584E-04   -0.53302E-04   504   0.160E-01
  60 F= -.60601199E+02 E0= -.60590856E+02  d E =-.461882E-01
 curvature:  -2.01 expect dE=-0.355E+00 dE for cont linesearch -0.746E-04
 trial: gam= 1.23464 g(F)=  0.131E+00 g(S)=  0.460E-01 ort = 0.644E-02 (trialstep = 0.133E+00)
 search vector abs. value=  0.189E+01
 bond charge predicted
       N       E                     dE             d eps       ncg     rms          rms(c)
DAV:   1    -0.606275411976E+02   -0.26290E-01   -0.30461E+00   384   0.111E+01    0.562E-01
DAV:   2    -0.606251494386E+02    0.23918E-02   -0.68158E-02   520   0.165E+00    0.313E-01
DAV:   3    -0.606232910760E+02    0.18584E-02   -0.79045E-03   512   0.564E-01    0.976E-02
DAV:   4    -0.606232005927E+02    0.90483E-04   -0.55850E-04   480   0.162E-01
  61 F= -.60623201E+02 E0= -.60614006E+02  d E =-.220017E-01
 ZBRENT: can't locate minimum, use default step
 trial-energy change:   -0.022002  1 .order   -0.022102   -0.024583   -0.019622
 step:   0.5317(harm=  0.6587)  dis= 0.06592  next Energy=   -60.662108 (dE=-0.609E-01)
 bond charge predicted
       N       E                     dE             d eps       ncg     rms          rms(c)
DAV:   1    -0.607021286295E+02   -0.78838E-01   -0.27741E+01   384   0.338E+01    0.175E+00
DAV:   2    -0.606794987281E+02    0.22630E-01   -0.69968E-01   528   0.546E+00    0.971E-01
DAV:   3    -0.606625097969E+02    0.16989E-01   -0.70294E-02   512   0.177E+00    0.329E-01
DAV:   4    -0.606616176574E+02    0.89214E-03   -0.51279E-03   536   0.490E-01    0.124E-01
DAV:   5    -0.606616884024E+02   -0.70745E-04   -0.73138E-04   464   0.173E-01
  62 F= -.60661688E+02 E0= -.60654792E+02  d E =-.604895E-01
 curvature:  -3.17 expect dE=-0.778E+00 dE for cont linesearch -0.313E-02
 trial: gam= 1.07921 g(F)=  0.230E+00 g(S)=  0.151E-01 ort = 0.432E-01 (trialstep = 0.158E+00)
 search vector abs. value=  0.254E+01
 bond charge predicted
       N       E                     dE             d eps       ncg     rms          rms(c)
DAV:   1    -0.607146087642E+02   -0.52991E-01   -0.57951E+00   384   0.154E+01    0.866E-01
DAV:   2    -0.607038161334E+02    0.10793E-01   -0.13834E-01   512   0.240E+00    0.474E-01
DAV:   3    -0.606990625350E+02    0.47536E-02   -0.23473E-02   512   0.922E-01    0.156E-01
DAV:   4    -0.606989486800E+02    0.11386E-03   -0.18213E-03   448   0.271E-01    0.707E-02
DAV:   5    -0.606990490441E+02   -0.10036E-03   -0.25079E-04   368   0.107E-01    0.196E-02
DAV:   6    -0.606991524644E+02   -0.10342E-03   -0.62258E-05   304   0.644E-02    0.827E-03
DAV:   7    -0.606992484615E+02   -0.95997E-04   -0.33821E-05   352   0.350E-02
  63 F= -.60699248E+02 E0= -.60692899E+02  d E =-.375601E-01
 trial-energy change:   -0.037560  1 .order   -0.037215   -0.046197   -0.028232
 step:   0.4071(harm=  0.4071)  dis= 0.05756  next Energy=   -60.721086 (dE=-0.594E-01)
 bond charge predicted
       N       E                     dE             d eps       ncg     rms          rms(c)
DAV:   1    -0.607614535434E+02   -0.62301E-01   -0.14408E+01   384   0.243E+01    0.139E+00
DAV:   2    -0.607330968282E+02    0.28357E-01   -0.35990E-01   504   0.392E+00    0.754E-01
DAV:   3    -0.607211313254E+02    0.11966E-01   -0.56263E-02   512   0.146E+00    0.253E-01
DAV:   4    -0.607206302704E+02    0.50106E-03   -0.41581E-03   448   0.417E-01    0.111E-01
DAV:   5    -0.607206861093E+02   -0.55839E-04   -0.64205E-04   496   0.159E-01
  64 F= -.60720686E+02 E0= -.60714920E+02  d E =-.589977E-01
 curvature:  -1.77 expect dE=-0.235E+00 dE for cont linesearch -0.325E-04
 trial: gam= 0.73029 g(F)=  0.103E+00 g(S)=  0.298E-01 ort =-0.682E-02 (trialstep = 0.208E+00)
 search vector abs. value=  0.148E+01
 bond charge predicted
       N       E                     dE             d eps       ncg     rms          rms(c)
DAV:   1    -0.607619813500E+02   -0.41351E-01   -0.55233E+00   384   0.151E+01    0.887E-01
DAV:   2    -0.607488911010E+02    0.13090E-01   -0.12823E-01   472   0.227E+00    0.488E-01
DAV:   3    -0.607431832147E+02    0.57079E-02   -0.28919E-02   512   0.103E+00    0.139E-01
DAV:   4    -0.607430971556E+02    0.86059E-04   -0.24129E-03   480   0.307E-01    0.703E-02
DAV:   5    -0.607431953513E+02   -0.98196E-04   -0.28902E-04   360   0.116E-01
  65 F= -.60743195E+02 E0= -.60738300E+02  d E =-.225092E-01
 trial-energy change:   -0.022509  1 .order   -0.022229   -0.026536   -0.017922
 step:   0.6410(harm=  0.6410)  dis= 0.06997  next Energy=   -60.761561 (dE=-0.409E-01)
 bond charge predicted
       N       E                     dE             d eps       ncg     rms          rms(c)
DAV:   1    -0.608486627996E+02   -0.10557E+00   -0.24010E+01   384   0.313E+01    0.190E+00
DAV:   2    -0.607862191125E+02    0.62444E-01   -0.58037E-01   480   0.499E+00    0.104E+00
DAV:   3    -0.607612750335E+02    0.24944E-01   -0.12557E-01   544   0.220E+00    0.298E-01
DAV:   4    -0.607606397305E+02    0.63530E-03   -0.96585E-03   496   0.614E-01    0.148E-01
DAV:   5    -0.607608080329E+02   -0.16830E-03   -0.12872E-03   512   0.229E-01    0.453E-02
DAV:   6    -0.607610154971E+02   -0.20746E-03   -0.20614E-04   376   0.105E-01    0.200E-02
DAV:   7    -0.607612648541E+02   -0.24936E-03   -0.13445E-04   328   0.661E-02    0.118E-02
DAV:   8    -0.607614464526E+02   -0.18160E-03   -0.60880E-05   376   0.514E-02    0.614E-03
DAV:   9    -0.607616122319E+02   -0.16578E-03   -0.95963E-05   360   0.405E-02    0.644E-03
DAV:  10    -0.607616456503E+02   -0.33418E-04   -0.17557E-05   384   0.239E-02
  66 F= -.60761646E+02 E0= -.60758381E+02  d E =-.409595E-01
 curvature:  -3.72 expect dE=-0.391E+00 dE for cont linesearch -0.761E-04
 trial: gam= 0.25218 g(F)=  0.707E-01 g(S)=  0.345E-01 ort =-0.550E-02 (trialstep = 0.295E+00)
 search vector abs. value=  0.196E+00
 bond charge predicted
       N       E                     dE             d eps       ncg     rms          rms(c)
DAV:   1    -0.607870571198E+02   -0.25445E-01   -0.14776E+00   384   0.848E+00    0.487E-01
DAV:   2    -0.607844080010E+02    0.26491E-02   -0.41816E-02   504   0.135E+00    0.273E-01
DAV:   3    -0.607825155053E+02    0.18925E-02   -0.83434E-03   496   0.590E-01    0.731E-02
DAV:   4    -0.607824818477E+02    0.33658E-04   -0.69160E-04   512   0.168E-01
  67 F= -.60782482E+02 E0= -.60779602E+02  d E =-.208362E-01
 trial-energy change:   -0.020836  1 .order   -0.020616   -0.030594   -0.010638
 step:   0.4517(harm=  0.4517)  dis= 0.01792  next Energy=   -60.785098 (dE=-0.235E-01)
 bond charge predicted
       N       E                     dE             d eps       ncg     rms          rms(c)
DAV:   1    -0.607867787443E+02   -0.42632E-02   -0.42133E-01   384   0.454E+00    0.258E-01
DAV:   2    -0.607860895880E+02    0.68916E-03   -0.11882E-02   512   0.725E-01    0.146E-01
DAV:   3    -0.607855375077E+02    0.55208E-03   -0.22972E-03   512   0.310E-01    0.402E-02
DAV:   4    -0.607855426942E+02   -0.51865E-05   -0.18629E-04   400   0.897E-02
  68 F= -.60785543E+02 E0= -.60782852E+02  d E =-.238970E-01
 curvature:  -0.43 expect dE=-0.410E-01 dE for cont linesearch -0.153E-05
 trial: gam= 0.88796 g(F)=  0.843E-01 g(S)=  0.116E-01 ort = 0.839E-03 (trialstep = 0.254E+00)
 search vector abs. value=  0.252E+00
 bond charge predicted
       N       E                     dE             d eps       ncg     rms          rms(c)
DAV:   1    -0.608100321623E+02   -0.24495E-01   -0.14706E+00   384   0.792E+00    0.404E-01
DAV:   2    -0.608084888174E+02    0.15433E-02   -0.30964E-02   512   0.112E+00    0.229E-01
DAV:   3    -0.608071651016E+02    0.13237E-02   -0.51896E-03   512   0.460E-01    0.623E-02
DAV:   4    -0.608071619901E+02    0.31115E-05   -0.40597E-04   464   0.140E-01
  69 F= -.60807162E+02 E0= -.60804584E+02  d E =-.216193E-01
 ZBRENT: can't locate minimum, use default step
 trial-energy change:   -0.021619  1 .order   -0.021550   -0.024534   -0.018566
 step:   1.0158(harm=  1.0441)  dis= 0.04775  next Energy=   -60.835975 (dE=-0.504E-01)
 bond charge predicted
       N       E                     dE             d eps       ncg     rms          rms(c)
DAV:   1    -0.608630874848E+02   -0.55922E-01   -0.13207E+01   384   0.236E+01    0.125E+00
DAV:   2    -0.608475843042E+02    0.15503E-01   -0.28290E-01   512   0.348E+00    0.698E-01
DAV:   3    -0.608359810310E+02    0.11603E-01   -0.44884E-02   504   0.139E+00    0.198E-01
DAV:   4    -0.608358403252E+02    0.14071E-03   -0.37150E-03   480   0.418E-01    0.921E-02
DAV:   5    -0.608360549820E+02   -0.21466E-03   -0.65258E-04   464   0.155E-01    0.363E-02
DAV:   6    -0.608362411969E+02   -0.18621E-03   -0.10596E-04   336   0.713E-02    0.151E-02
DAV:   7    -0.608364100871E+02   -0.16889E-03   -0.58410E-05   328   0.419E-02    0.771E-03
DAV:   8    -0.608365653495E+02   -0.15526E-03   -0.54972E-05   344   0.330E-02    0.437E-03
DAV:   9    -0.608366720256E+02   -0.10668E-03   -0.54330E-05   376   0.261E-02    0.400E-03
DAV:  10    -0.608367168362E+02   -0.44811E-04   -0.22077E-05   384   0.183E-02
  70 F= -.60836717E+02 E0= -.60834055E+02  d E =-.511741E-01
 curvature:  -1.36 expect dE=-0.292E+00 dE for cont linesearch -0.578E-04
 trial: gam= 2.26258 g(F)=  0.146E+00 g(S)=  0.688E-01 ort = 0.327E-02 (trialstep = 0.674E-01)
 search vector abs. value=  0.152E+01
 bond charge predicted
       N       E                     dE             d eps       ncg     rms          rms(c)
DAV:   1    -0.608523757433E+02   -0.15704E-01   -0.67841E-01   384   0.521E+00    0.257E-01
DAV:   2    -0.608514331649E+02    0.94258E-03   -0.14408E-02   512   0.777E-01    0.141E-01
DAV:   3    -0.608508361447E+02    0.59702E-03   -0.26120E-03   496   0.294E-01    0.465E-02
DAV:   4    -0.608508209114E+02    0.15233E-04   -0.14372E-04   368   0.836E-02
  71 F= -.60850821E+02 E0= -.60848408E+02  d E =-.141041E-01
 ZBRENT: can't locate minimum, use default step
 trial-energy change:   -0.014104  1 .order   -0.014108   -0.014967   -0.013248
 step:   0.2696(harm=  0.5866)  dis= 0.03198  next Energy=   -60.901852 (dE=-0.651E-01)
 bond charge predicted
       N       E                     dE             d eps       ncg     rms          rms(c)
DAV:   1    -0.608967841304E+02   -0.45948E-01   -0.60998E+00   384   0.156E+01    0.780E-01
DAV:   2    -0.608879671023E+02    0.88170E-02   -0.13283E-01   504   0.242E+00    0.427E-01
DAV:   3    -0.608826243344E+02    0.53428E-02   -0.22718E-02   512   0.882E-01    0.147E-01
DAV:   4    -0.608825878198E+02    0.36515E-04   -0.14618E-03   512   0.248E-01    0.677E-02
DAV:   5    -0.608826648513E+02   -0.77032E-04   -0.16326E-04   352   0.853E-02
  72 F= -.60882665E+02 E0= -.60880984E+02  d E =-.459480E-01
 curvature:  -1.26 expect dE=-0.156E+00 dE for cont linesearch -0.122E-01
 ZBRENT: increasing intervall
 opt :   0.6739  next Energy=   -60.901243 (dE=-0.645E-01)
 bond charge predicted
       N       E                     dE             d eps       ncg     rms          rms(c)
DAV:   1    -0.609527925582E+02   -0.70205E-01   -0.24472E+01   384   0.314E+01    0.159E+00
DAV:   2    -0.609196339224E+02    0.33159E-01   -0.57122E-01   504   0.517E+00    0.861E-01
DAV:   3    -0.608988742656E+02    0.20760E-01   -0.86185E-02   528   0.178E+00    0.314E-01
DAV:   4    -0.608986369301E+02    0.23734E-03   -0.57128E-03   480   0.483E-01    0.141E-01
DAV:   5    -0.608989630566E+02   -0.32613E-03   -0.76450E-04   464   0.171E-01    0.429E-02
DAV:   6    -0.608992955272E+02   -0.33247E-03   -0.14879E-04   336   0.759E-02    0.161E-02
DAV:   7    -0.608995631540E+02   -0.26763E-03   -0.95249E-05   336   0.513E-02    0.108E-02
DAV:   8    -0.608998026284E+02   -0.23947E-03   -0.99737E-05   360   0.427E-02    0.573E-03
DAV:   9    -0.608999289634E+02   -0.12634E-03   -0.77741E-05   360   0.330E-02    0.510E-03
DAV:  10    -0.608999646558E+02   -0.35692E-04   -0.21866E-05   384   0.215E-02
  73 F= -.60899965E+02 E0= -.60898953E+02  d E =-.632478E-01
 curvature:  -1.92 expect dE=-0.741E+00 dE for cont linesearch -0.183E-02
 trial: gam= 1.96622 g(F)=  0.355E+00 g(S)=  0.301E-01 ort =-0.380E-01 (trialstep = 0.469E-01)
 search vector abs. value=  0.612E+01
 bond charge predicted
       N       E                     dE             d eps       ncg     rms          rms(c)
DAV:   1    -0.609164653215E+02   -0.16536E-01   -0.13253E+00   384   0.711E+00    0.351E-01
DAV:   2    -0.609147784105E+02    0.16869E-02   -0.27226E-02   488   0.104E+00    0.193E-01
DAV:   3    -0.609136119766E+02    0.11664E-02   -0.49915E-03   512   0.415E-01    0.591E-02
DAV:   4    -0.609135812489E+02    0.30728E-04   -0.27326E-04   448   0.115E-01
  74 F= -.60913581E+02 E0= -.60912778E+02  d E =-.136166E-01
 ZBRENT: can't locate minimum, use default step
 trial-energy change:   -0.013617  1 .order   -0.013694   -0.014577   -0.012811
 step:   0.1877(harm=  0.3873)  dis= 0.03976  next Energy=   -60.960117 (dE=-0.602E-01)
 bond charge predicted
       N       E                     dE             d eps       ncg     rms          rms(c)
DAV:   1    -0.609691812147E+02   -0.55569E-01   -0.11911E+01   384   0.213E+01    0.107E+00
DAV:   2    -0.609530818469E+02    0.16099E-01   -0.25337E-01   528   0.333E+00    0.586E-01
DAV:   3    -0.609429265826E+02    0.10155E-01   -0.44597E-02   528   0.128E+00    0.186E-01
DAV:   4    -0.609429096105E+02    0.16972E-04   -0.27015E-03   496   0.345E-01    0.923E-02
DAV:   5    -0.609431302921E+02   -0.22068E-03   -0.51428E-04   496   0.135E-01    0.319E-02
DAV:   6    -0.609433203262E+02   -0.19003E-03   -0.76321E-05   352   0.592E-02    0.137E-02
DAV:   7    -0.609435231703E+02   -0.20284E-03   -0.75931E-05   368   0.445E-02    0.874E-03
DAV:   8    -0.609436708879E+02   -0.14772E-03   -0.45138E-05   376   0.359E-02    0.437E-03
DAV:   9    -0.609437913878E+02   -0.12050E-03   -0.71130E-05   360   0.293E-02    0.406E-03
DAV:  10    -0.609438189527E+02   -0.27565E-04   -0.15542E-05   384   0.208E-02
  75 F= -.60943819E+02 E0= -.60943351E+02  d E =-.438543E-01
 curvature:  -2.50 expect dE=-0.723E+00 dE for cont linesearch -0.952E-02
 ZBRENT: increasing intervall
 opt :   0.4693  next Energy=   -60.952877 (dE=-0.529E-01)
 bond charge predicted
       N       E                     dE             d eps       ncg     rms          rms(c)
DAV:   1    -0.610487447132E+02   -0.10495E+00   -0.48102E+01   384   0.435E+01    0.222E+00
DAV:   2    -0.609905980882E+02    0.58147E-01   -0.11484E+00   496   0.745E+00    0.119E+00
DAV:   3    -0.609512835784E+02    0.39315E-01   -0.17603E-01   560   0.264E+00    0.405E-01
DAV:   4    -0.609506677008E+02    0.61588E-03   -0.11020E-02   528   0.666E-01    0.194E-01
DAV:   5    -0.609510508515E+02   -0.38315E-03   -0.17693E-03   504   0.256E-01    0.645E-02
DAV:   6    -0.609515324054E+02   -0.48155E-03   -0.26935E-04   416   0.107E-01    0.260E-02
DAV:   7    -0.609519664640E+02   -0.43406E-03   -0.19133E-04   336   0.754E-02    0.158E-02
DAV:   8    -0.609522371729E+02   -0.27071E-03   -0.10382E-04   392   0.511E-02    0.901E-03
DAV:   9    -0.609524932206E+02   -0.25605E-03   -0.20896E-04   416   0.522E-02    0.773E-03
DAV:  10    -0.609525337674E+02   -0.40547E-04   -0.24212E-05   384   0.300E-02
  76 F= -.60952534E+02 E0= -.60952382E+02  d E =-.525691E-01
 curvature:  -2.38 expect dE=-0.103E+01 dE for cont linesearch -0.371E-02
 ZBRENT: bracketing found
 ZBRENT: interpolating
 opt :   0.3594  next Energy=   -60.957900 (dE=-0.579E-01)
 bond charge predicted
       N       E                     dE             d eps       ncg     rms          rms(c)
DAV:   1    -0.609728286805E+02   -0.20335E-01   -0.74774E+00   384   0.174E+01    0.828E-01
DAV:   2    -0.609645257666E+02    0.83029E-02   -0.16238E-01   504   0.246E+00    0.457E-01
DAV:   3    -0.609576542151E+02    0.68716E-02   -0.31349E-02   512   0.981E-01    0.135E-01
DAV:   4    -0.609574742758E+02    0.17994E-03   -0.17457E-03   528   0.285E-01    0.698E-02
DAV:   5    -0.609573913823E+02    0.82894E-04   -0.32340E-04   432   0.111E-01
  77 F= -.60957391E+02 E0= -.60957143E+02  d E =-.574267E-01
 curvature:  -3.44 expect dE=-0.116E+01 dE for cont linesearch -0.245E-06
 trial: gam= 0.29672 g(F)=  0.247E+00 g(S)=  0.914E-01 ort = 0.660E-03 (trialstep = 0.109E+00)
 search vector abs. value=  0.877E+00
 bond charge predicted
       N       E                     dE             d eps       ncg     rms          rms(c)
DAV:   1    -0.609908114360E+02   -0.33337E-01   -0.98113E-01   384   0.673E+00    0.343E-01
DAV:   2    -0.609904189400E+02    0.39250E-03   -0.24667E-02   512   0.999E-01    0.203E-01
DAV:   3    -0.609896777509E+02    0.74119E-03   -0.35684E-03   496   0.423E-01    0.556E-02
DAV:   4    -0.609896550093E+02    0.22742E-04   -0.39087E-04   504   0.129E-01
  78 F= -.60989655E+02 E0= -.60989443E+02  d E =-.322636E-01
 trial-energy change:   -0.032264  1 .order   -0.031974   -0.037049   -0.026899
 step:   0.3994(harm=  0.3994)  dis= 0.02864  next Energy=   -61.025011 (dE=-0.676E-01)
 bond charge predicted
       N       E                     dE             d eps       ncg     rms          rms(c)
DAV:   1    -0.610372707628E+02   -0.47593E-01   -0.68922E+00   384   0.177E+01    0.919E-01
DAV:   2    -0.610327408614E+02    0.45299E-02   -0.17185E-01   496   0.266E+00    0.550E-01
DAV:   3    -0.610262852283E+02    0.64556E-02   -0.27155E-02   560   0.118E+00    0.149E-01
DAV:   4    -0.610260462564E+02    0.23897E-03   -0.30358E-03   512   0.351E-01    0.804E-02
DAV:   5    -0.610261094155E+02   -0.63159E-04   -0.37010E-04   448   0.117E-01
  79 F= -.61026109E+02 E0= -.61025996E+02  d E =-.687180E-01
 curvature:  -0.52 expect dE=-0.951E-01 dE for cont linesearch -0.151E-04
 trial: gam= 0.59035 g(F)=  0.157E+00 g(S)=  0.267E-01 ort =-0.507E-02 (trialstep = 0.167E+00)
 search vector abs. value=  0.483E+00
 bond charge predicted
       N       E                     dE             d eps       ncg     rms          rms(c)
DAV:   1    -0.610531410130E+02   -0.27095E-01   -0.13618E+00   384   0.787E+00    0.382E-01
DAV:   2    -0.610512887521E+02    0.18523E-02   -0.30232E-02   512   0.120E+00    0.219E-01
DAV:   3    -0.610500886814E+02    0.12001E-02   -0.66569E-03   512   0.508E-01    0.702E-02
DAV:   4    -0.610500988717E+02   -0.10190E-04   -0.73120E-04   480   0.174E-01
  80 F= -.61050099E+02 E0= -.61050028E+02  d E =-.239895E-01
 trial-energy change:   -0.023989  1 .order   -0.023832   -0.030262   -0.017402
 step:   0.3940(harm=  0.3940)  dis= 0.02476  next Energy=   -61.061716 (dE=-0.356E-01)
 bond charge predicted
       N       E                     dE             d eps       ncg     rms          rms(c)
DAV:   1    -0.610663477592E+02   -0.16259E-01   -0.24887E+00   384   0.106E+01    0.516E-01
DAV:   2    -0.610629756217E+02    0.33721E-02   -0.54958E-02   496   0.164E+00    0.297E-01
DAV:   3    -0.610607868654E+02    0.21888E-02   -0.12197E-02   512   0.698E-01    0.959E-02
DAV:   4    -0.610607414996E+02    0.45366E-04   -0.13794E-03   464   0.240E-01    0.518E-02
DAV:   5    -0.610608140549E+02   -0.72555E-04   -0.19118E-04   344   0.914E-02
  81 F= -.61060814E+02 E0= -.61060779E+02  d E =-.347046E-01
 curvature:  -0.53 expect dE=-0.461E-01 dE for cont linesearch -0.987E-04
 trial: gam= 0.51505 g(F)=  0.719E-01 g(S)=  0.156E-01 ort =-0.952E-02 (trialstep = 0.213E+00)
 search vector abs. value=  0.206E+00
 bond charge predicted
       N       E                     dE             d eps       ncg     rms          rms(c)
DAV:   1    -0.610767319851E+02   -0.15990E-01   -0.10070E+00   384   0.647E+00    0.296E-01
DAV:   2    -0.610761369488E+02    0.59504E-03   -0.20317E-02   496   0.983E-01    0.167E-01
DAV:   3    -0.610754317087E+02    0.70524E-03   -0.32503E-03   544   0.354E-01    0.630E-02
DAV:   4    -0.610754290239E+02    0.26848E-05   -0.36293E-04   448   0.125E-01
  82 F= -.61075429E+02 E0= -.61075391E+02  d E =-.146150E-01
 trial-energy change:   -0.014615  1 .order   -0.014617   -0.017571   -0.011664
 step:   0.6328(harm=  0.6328)  dis= 0.03400  next Energy=   -61.086946 (dE=-0.261E-01)
 bond charge predicted
       N       E                     dE             d eps       ncg     rms          rms(c)
DAV:   1    -0.610916471236E+02   -0.16215E-01   -0.39248E+00   384   0.128E+01    0.583E-01
[...]
 trial: gam= 0.49038 g(F)=  0.321E-01 g(S)=  0.554E-02 ort =-0.533E-02 (trialstep = 0.248E+00)
 search vector abs. value=  0.143E+00
 bond charge predicted
       N       E                     dE             d eps       ncg     rms          rms(c)
DAV:   1    -0.614550365749E+02   -0.50221E-02   -0.92667E-01   384   0.668E+00    0.285E-01
DAV:   2    -0.614551622536E+02   -0.12568E-03   -0.22783E-02   544   0.100E+00    0.169E-01
DAV:   3    -0.614544520254E+02    0.71023E-03   -0.22827E-03   464   0.321E-01    0.714E-02
DAV:   4    -0.614544564683E+02   -0.44429E-05   -0.28968E-04   360   0.119E-01
 110 F= -.61454456E+02 E0= -.61454452E+02  d E =-.437360E-02
 trial-energy change:   -0.004374  1 .order   -0.004537   -0.008687   -0.000387
 step:   0.2599(harm=  0.2599)  dis= 0.00572  next Energy=   -61.454629 (dE=-0.455E-02)
 bond charge predicted
       N       E                     dE             d eps       ncg     rms          rms(c)
DAV:   1    -0.614545238079E+02   -0.71782E-04   -0.19923E-03   440   0.315E-01    0.165E-02
DAV:   2    -0.614545617855E+02   -0.37978E-04   -0.46793E-05   352   0.492E-02
 111 F= -.61454562E+02 E0= -.61454557E+02  d E =-.447892E-02
 curvature:  -0.53 expect dE=-0.845E-02 dE for cont linesearch -0.797E-06
 trial: gam= 0.33240 g(F)=  0.128E-01 g(S)=  0.309E-02 ort =-0.463E-03 (trialstep = 0.251E+00)
 search vector abs. value=  0.314E-01
 bond charge predicted
       N       E                     dE             d eps       ncg     rms          rms(c)
DAV:   1    -0.614578616644E+02   -0.33379E-02   -0.17516E-01   384   0.293E+00    0.130E-01
DAV:   2    -0.614578790440E+02   -0.17380E-04   -0.38221E-03   512   0.414E-01    0.791E-02
DAV:   3    -0.614577690841E+02    0.10996E-03   -0.56522E-04   464   0.170E-01    0.211E-02
DAV:   4    -0.614577826343E+02   -0.13550E-04   -0.81695E-05   352   0.609E-02
 112 F= -.61457783E+02 E0= -.61457778E+02  d E =-.322085E-02
 trial-energy change:   -0.003221  1 .order   -0.003132   -0.003948   -0.002316
 step:   0.6063(harm=  0.6063)  dis= 0.00629  next Energy=   -61.459337 (dE=-0.478E-02)
 bond charge predicted
       N       E                     dE             d eps       ncg     rms          rms(c)
DAV:   1    -0.614598222237E+02   -0.20531E-02   -0.35342E-01   384   0.416E+00    0.187E-01
DAV:   2    -0.614598273083E+02   -0.50846E-05   -0.77544E-03   512   0.590E-01    0.113E-01
DAV:   3    -0.614595672171E+02    0.26009E-03   -0.11473E-03   512   0.244E-01    0.300E-02
DAV:   4    -0.614595671650E+02    0.52068E-07   -0.16135E-04   328   0.857E-02
 113 F= -.61459567E+02 E0= -.61459562E+02  d E =-.500538E-02
 curvature:  -0.60 expect dE=-0.120E-01 dE for cont linesearch -0.574E-05
 trial: gam= 1.21104 g(F)=  0.133E-01 g(S)=  0.646E-02 ort = 0.546E-03 (trialstep = 0.150E+00)
 search vector abs. value=  0.672E-01
 bond charge predicted
       N       E                     dE             d eps       ncg     rms          rms(c)
DAV:   1    -0.614622608426E+02   -0.26936E-02   -0.15008E-01   384   0.264E+00    0.945E-02
DAV:   2    -0.614623252839E+02   -0.64441E-04   -0.30409E-03   512   0.387E-01    0.580E-02
DAV:   3    -0.614622360590E+02    0.89225E-04   -0.29231E-04   384   0.115E-01
 114 F= -.61462236E+02 E0= -.61462231E+02  d E =-.266889E-02
 trial-energy change:   -0.002669  1 .order   -0.002649   -0.003077   -0.002221
 step:   0.5412(harm=  0.5412)  dis= 0.00946  next Energy=   -61.465101 (dE=-0.553E-02)
 bond charge predicted
       N       E                     dE             d eps       ncg     rms          rms(c)
DAV:   1    -0.614653182164E+02   -0.29929E-02   -0.10094E+00   384   0.683E+00    0.249E-01
DAV:   2    -0.614657802132E+02   -0.46200E-03   -0.20239E-02   512   0.100E+00    0.154E-01
DAV:   3    -0.614651682423E+02    0.61197E-03   -0.19737E-03   512   0.293E-01    0.575E-02
DAV:   4    -0.614651526673E+02    0.15575E-04   -0.23595E-04   368   0.103E-01
 115 F= -.61465153E+02 E0= -.61465149E+02  d E =-.558550E-02
 curvature:  -0.89 expect dE=-0.218E-01 dE for cont linesearch -0.147E-04
 trial: gam= 1.32456 g(F)=  0.209E-01 g(S)=  0.355E-02 ort = 0.105E-02 (trialstep = 0.106E+00)
 search vector abs. value=  0.145E+00
 bond charge predicted
       N       E                     dE             d eps       ncg     rms          rms(c)
DAV:   1    -0.614677172797E+02   -0.25490E-02   -0.15171E-01   384   0.264E+00    0.101E-01
DAV:   2    -0.614677549785E+02   -0.37699E-04   -0.28526E-03   496   0.369E-01    0.604E-02
DAV:   3    -0.614676654945E+02    0.89484E-04   -0.24848E-04   336   0.111E-01
 116 F= -.61467665E+02 E0= -.61467662E+02  d E =-.251283E-02
 ZBRENT: can't locate minimum, use default step
 trial-energy change:   -0.002513  1 .order   -0.002516   -0.002738   -0.002293
 step:   0.4232(harm=  0.6516)  dis= 0.01135  next Energy=   -61.473584 (dE=-0.843E-02)
 bond charge predicted
       N       E                     dE             d eps       ncg     rms          rms(c)
DAV:   1    -0.614733002103E+02   -0.55452E-02   -0.13681E+00   384   0.791E+00    0.303E-01
DAV:   2    -0.614737628732E+02   -0.46266E-03   -0.25565E-02   512   0.111E+00    0.181E-01
DAV:   3    -0.614729182556E+02    0.84462E-03   -0.23167E-03   512   0.322E-01    0.598E-02
DAV:   4    -0.614728956255E+02    0.22630E-04   -0.26673E-04   384   0.112E-01
 117 F= -.61472896E+02 E0= -.61472892E+02  d E =-.774296E-02
 curvature:  -1.51 expect dE=-0.160E-01 dE for cont linesearch -0.165E-02
 ZBRENT: increasing intervall
 opt :   1.0580  next Energy=   -61.475120 (dE=-0.997E-02)
 bond charge predicted
       N       E                     dE             d eps       ncg     rms          rms(c)
DAV:   1    -0.614750960134E+02   -0.21778E-02   -0.54767E+00   384   0.159E+01    0.607E-01
DAV:   2    -0.614770223673E+02   -0.19264E-02   -0.10408E-01   512   0.222E+00    0.359E-01
DAV:   3    -0.614738483728E+02    0.31740E-02   -0.95236E-03   512   0.654E-01    0.122E-01
DAV:   4    -0.614737409733E+02    0.10740E-03   -0.11267E-03   432   0.229E-01    0.575E-02
DAV:   5    -0.614738350463E+02   -0.94073E-04   -0.17432E-04   288   0.847E-02
 118 F= -.61473835E+02 E0= -.61473831E+02  d E =-.868238E-02
 curvature:  -2.04 expect dE=-0.793E-01 dE for cont linesearch -0.782E-03
 trial: gam= 0.00000 g(F)=  0.274E-01 g(S)=  0.115E-01 ort =-0.746E-02 (trialstep = 0.296E+00)
 search vector abs. value=  0.389E-01
 bond charge predicted
       N       E                     dE             d eps       ncg     rms          rms(c)
DAV:   1    -0.614813997993E+02   -0.76588E-02   -0.27907E-01   384   0.395E+00    0.222E-01
DAV:   2    -0.614811226952E+02    0.27710E-03   -0.78281E-03   496   0.619E-01    0.126E-01
DAV:   3    -0.614808863303E+02    0.23636E-03   -0.14849E-03   464   0.270E-01    0.440E-02
DAV:   4    -0.614808947724E+02   -0.84421E-05   -0.21750E-04   424   0.930E-02
 119 F= -.61480895E+02 E0= -.61480892E+02  d E =-.705973E-02
 trial-energy change:   -0.007060  1 .order   -0.006743   -0.011530   -0.001956
 step:   0.3568(harm=  0.3568)  dis= 0.00548  next Energy=   -61.480778 (dE=-0.694E-02)
 bond charge predicted
       N       E                     dE             d eps       ncg     rms          rms(c)
DAV:   1    -0.614811884155E+02   -0.30209E-03   -0.11769E-02   384   0.808E-01    0.464E-02
DAV:   2    -0.614811982645E+02   -0.98490E-05   -0.31402E-04   472   0.126E-01
 120 F= -.61481198E+02 E0= -.61481196E+02  d E =-.736322E-02
 curvature:  -0.18 expect dE=-0.221E-02 dE for cont linesearch -0.663E-05
 trial: gam= 0.28680 g(F)=  0.104E-01 g(S)=  0.194E-02 ort = 0.120E-02 (trialstep = 0.308E+00)
 search vector abs. value=  0.163E-01
 bond charge predicted
       N       E                     dE             d eps       ncg     rms          rms(c)
DAV:   1    -0.614840789048E+02   -0.28905E-02   -0.11935E-01   384   0.249E+00    0.113E-01
DAV:   2    -0.614840210516E+02    0.57853E-04   -0.27892E-03   504   0.359E-01    0.682E-02
DAV:   3    -0.614839379819E+02    0.83070E-04   -0.41451E-04   496   0.128E-01
 121 F= -.61483938E+02 E0= -.61483935E+02  d E =-.273972E-02
 trial-energy change:   -0.002740  1 .order   -0.002697   -0.003919   -0.001475
 step:   0.4944(harm=  0.4944)  dis= 0.00433  next Energy=   -61.484341 (dE=-0.314E-02)
 bond charge predicted
       N       E                     dE             d eps       ncg     rms          rms(c)
DAV:   1    -0.614844573480E+02   -0.43630E-03   -0.43497E-02   384   0.150E+00    0.719E-02
DAV:   2    -0.614844388467E+02    0.18501E-04   -0.97884E-04   512   0.214E-01
 122 F= -.61484439E+02 E0= -.61484436E+02  d E =-.324058E-02
 curvature:  -0.32 expect dE=-0.477E-02 dE for cont linesearch -0.712E-05
 trial: gam= 1.19460 g(F)=  0.914E-02 g(S)=  0.596E-02 ort = 0.605E-03 (trialstep = 0.141E+00)
 search vector abs. value=  0.397E-01
 bond charge predicted
       N       E                     dE             d eps       ncg     rms          rms(c)
DAV:   1    -0.614863933072E+02   -0.19360E-02   -0.57589E-02   384   0.178E+00    0.886E-02
DAV:   2    -0.614863379436E+02    0.55364E-04   -0.12779E-03   528   0.235E-01    0.538E-02
DAV:   3    -0.614862840871E+02    0.53857E-04   -0.13879E-04   320   0.887E-02
 123 F= -.61486284E+02 E0= -.61486281E+02  d E =-.184524E-02
 trial-energy change:   -0.001845  1 .order   -0.001894   -0.002236   -0.001551
 step:   0.4617(harm=  0.4617)  dis= 0.00476  next Energy=   -61.488091 (dE=-0.365E-02)
 bond charge predicted
       N       E                     dE             d eps       ncg     rms          rms(c)
DAV:   1    -0.614888611928E+02   -0.25232E-02   -0.29659E-01   384   0.403E+00    0.192E-01
DAV:   2    -0.614886078900E+02    0.25330E-03   -0.65397E-03   552   0.533E-01    0.116E-01
DAV:   3    -0.614883388036E+02    0.26909E-03   -0.80467E-04   496   0.198E-01    0.426E-02
DAV:   4    -0.614883152446E+02    0.23559E-04   -0.95779E-05   248   0.711E-02
 124 F= -.61488315E+02 E0= -.61488311E+02  d E =-.387640E-02
 curvature:  -0.58 expect dE=-0.485E-02 dE for cont linesearch -0.340E-04
 trial: gam= 0.45052 g(F)=  0.690E-02 g(S)=  0.147E-02 ort = 0.153E-02 (trialstep = 0.205E+00)
 search vector abs. value=  0.178E-01
 bond charge predicted
       N       E                     dE             d eps       ncg     rms          rms(c)
DAV:   1    -0.614899656056E+02   -0.16268E-02   -0.57627E-02   384   0.173E+00    0.861E-02
DAV:   2    -0.614899327298E+02    0.32876E-04   -0.14139E-03   544   0.254E-01    0.509E-02
DAV:   3    -0.614898762416E+02    0.56488E-04   -0.11380E-04   200   0.773E-02
 125 F= -.61489876E+02 E0= -.61489873E+02  d E =-.156100E-02
 trial-energy change:   -0.001561  1 .order   -0.001567   -0.001860   -0.001274
 step:   0.6518(harm=  0.6518)  dis= 0.00414  next Energy=   -61.491266 (dE=-0.295E-02)
 bond charge predicted
       N       E                     dE             d eps       ncg     rms          rms(c)
DAV:   1    -0.614915621953E+02   -0.16295E-02   -0.27201E-01   384   0.376E+00    0.187E-01
DAV:   2    -0.614914224040E+02    0.13979E-03   -0.66112E-03   544   0.549E-01    0.110E-01
DAV:   3    -0.614911492893E+02    0.27311E-03   -0.59318E-04   488   0.165E-01    0.418E-02
DAV:   4    -0.614911257227E+02    0.23567E-04   -0.81554E-05   240   0.642E-02
 126 F= -.61491126E+02 E0= -.61491123E+02  d E =-.281048E-02
 curvature:  -0.64 expect dE=-0.116E-01 dE for cont linesearch -0.462E-05
 trial: gam= 2.34507 g(F)=  0.156E-01 g(S)=  0.257E-02 ort =-0.358E-03 (trialstep = 0.459E-01)
 search vector abs. value=  0.114E+00
 bond charge predicted
       N       E                     dE             d eps       ncg     rms          rms(c)
DAV:   1    -0.614919317218E+02   -0.78243E-03   -0.17815E-02   384   0.936E-01    0.469E-02
DAV:   2    -0.614919184111E+02    0.13311E-04   -0.37464E-04   416   0.135E-01
 127 F= -.61491918E+02 E0= -.61491916E+02  d E =-.792688E-03
 ZBRENT: can't locate minimum, use default step
 trial-energy change:   -0.000793  1 .order   -0.000783   -0.000793   -0.000773
 step:   0.1835(harm=  1.7728)  dis= 0.00374  next Energy=   -61.506456 (dE=-0.153E-01)
 bond charge predicted
       N       E                     dE             d eps       ncg     rms          rms(c)
DAV:   1    -0.614941482644E+02   -0.22165E-02   -0.15934E-01   384   0.280E+00    0.145E-01
DAV:   2    -0.614940065326E+02    0.14173E-03   -0.35115E-03   552   0.399E-01    0.840E-02
DAV:   3    -0.614938442744E+02    0.16226E-03   -0.33720E-04   440   0.118E-01    0.324E-02
DAV:   4    -0.614938337240E+02    0.10550E-04   -0.47640E-05   192   0.488E-02
 128 F= -.61493834E+02 E0= -.61493831E+02  d E =-.270800E-02
 curvature:  -0.90 expect dE=-0.114E-01 dE for cont linesearch -0.120E-02
 ZBRENT: increasing intervall
 opt :   0.4588  next Energy=   -61.496005 (dE=-0.488E-02)
 bond charge predicted
       N       E                     dE             d eps       ncg     rms          rms(c)
DAV:   1    -0.614971551082E+02   -0.33108E-02   -0.63712E-01   384   0.560E+00    0.278E-01
DAV:   2    -0.614967438958E+02    0.41121E-03   -0.14034E-02   560   0.802E-01    0.158E-01
DAV:   3    -0.614961723725E+02    0.57152E-03   -0.13182E-03   488   0.231E-01    0.633E-02
DAV:   4    -0.614961100560E+02    0.62317E-04   -0.16113E-04   312   0.907E-02
 129 F= -.61496110E+02 E0= -.61496108E+02  d E =-.498433E-02
 curvature:  -1.62 expect dE=-0.179E-01 dE for cont linesearch -0.356E-03
 trial: gam= 0.07350 g(F)=  0.879E-02 g(S)=  0.222E-02 ort = 0.501E-02 (trialstep = 0.128E+00)
 search vector abs. value=  0.124E-01
 bond charge predicted
       N       E                     dE             d eps       ncg     rms          rms(c)
DAV:   1    -0.614972876332E+02   -0.11153E-02   -0.19881E-02   384   0.103E+00    0.495E-02
DAV:   2    -0.614973052183E+02   -0.17585E-04   -0.58306E-04   504   0.164E-01
 130 F= -.61497305E+02 E0= -.61497303E+02  d E =-.119516E-02
 trial-energy change:   -0.001195  1 .order   -0.001198   -0.001461   -0.000934
 step:   0.3562(harm=  0.3562)  dis= 0.00429  next Energy=   -61.498136 (dE=-0.203E-02)
 bond charge predicted
       N       E                     dE             d eps       ncg     rms          rms(c)
DAV:   1    -0.614980391425E+02   -0.75151E-03   -0.61311E-02   384   0.182E+00    0.916E-02
DAV:   2    -0.614980503010E+02   -0.11158E-04   -0.16990E-03   512   0.281E-01    0.577E-02
DAV:   3    -0.614979943371E+02    0.55964E-04   -0.19985E-04   288   0.104E-01
 131 F= -.61497994E+02 E0= -.61497992E+02  d E =-.188428E-02
 curvature:  -0.19 expect dE=-0.157E-02 dE for cont linesearch -0.127E-04
 trial: gam= 0.85521 g(F)=  0.691E-02 g(S)=  0.122E-02 ort =-0.899E-03 (trialstep = 0.138E+00)
 search vector abs. value=  0.156E-01
 bond charge predicted
       N       E                     dE             d eps       ncg     rms          rms(c)
DAV:   1    -0.614989474809E+02   -0.89718E-03   -0.23881E-02   384   0.113E+00    0.492E-02
DAV:   2    -0.614989567668E+02   -0.92858E-05   -0.47632E-04   480   0.154E-01
 132 F= -.61498957E+02 E0= -.61498954E+02  d E =-.962430E-03
 ZBRENT: can't locate minimum, use default step
 trial-energy change:   -0.000962  1 .order   -0.000942   -0.001013   -0.000870
 step:   0.5503(harm=  0.9784)  dis= 0.00445  next Energy=   -61.501596 (dE=-0.360E-02)
 bond charge predicted
       N       E                     dE             d eps       ncg     rms          rms(c)
DAV:   1    -0.615007621037E+02   -0.18146E-02   -0.21230E-01   384   0.337E+00    0.143E-01
DAV:   2    -0.615008317448E+02   -0.69641E-04   -0.42799E-03   576   0.453E-01    0.882E-02
DAV:   3    -0.615006658875E+02    0.16586E-03   -0.33880E-04   440   0.130E-01    0.280E-02
DAV:   4    -0.615006624249E+02    0.34626E-05   -0.47616E-05   264   0.516E-02
 133 F= -.61500662E+02 E0= -.61500660E+02  d E =-.266809E-02
 curvature:  -0.77 expect dE=-0.674E-02 dE for cont linesearch -0.282E-03
 trial: gam= 0.56156 g(F)=  0.642E-02 g(S)=  0.233E-02 ort = 0.239E-02 (trialstep = 0.210E+00)
 search vector abs. value=  0.164E-01
 bond charge predicted
       N       E                     dE             d eps       ncg     rms          rms(c)
DAV:   1    -0.615022557192E+02   -0.15898E-02   -0.62392E-02   384   0.184E+00    0.830E-02
DAV:   2    -0.615022802673E+02   -0.24548E-04   -0.16495E-03   512   0.291E-01    0.499E-02
DAV:   3    -0.615022329281E+02    0.47339E-04   -0.15323E-04   304   0.900E-02
 134 F= -.61502233E+02 E0= -.61502230E+02  d E =-.157050E-02
 trial-energy change:   -0.001571  1 .order   -0.001567   -0.002122   -0.001011
 step:   0.4013(harm=  0.4013)  dis= 0.00253  next Energy=   -61.502688 (dE=-0.203E-02)
 bond charge predicted
       N       E                     dE             d eps       ncg     rms          rms(c)
DAV:   1    -0.615027290651E+02   -0.44880E-03   -0.51699E-02   384   0.168E+00    0.793E-02
DAV:   2    -0.615027478277E+02   -0.18763E-04   -0.13447E-03   512   0.262E-01    0.479E-02
DAV:   3    -0.615027037559E+02    0.44072E-04   -0.13011E-04   288   0.837E-02
 135 F= -.61502704E+02 E0= -.61502701E+02  d E =-.204133E-02
 curvature:  -0.33 expect dE=-0.211E-02 dE for cont linesearch -0.263E-06
 trial: gam= 0.95892 g(F)=  0.519E-02 g(S)=  0.129E-02 ort = 0.115E-03 (trialstep = 0.187E+00)
 search vector abs. value=  0.217E-01
 bond charge predicted
       N       E                     dE             d eps       ncg     rms          rms(c)
DAV:   1    -0.615038774451E+02   -0.11296E-02   -0.56494E-02   384   0.167E+00    0.806E-02
DAV:   2    -0.615038707664E+02    0.66787E-05   -0.11897E-03   512   0.241E-01    0.486E-02
DAV:   3    -0.615038132699E+02    0.57496E-04   -0.10889E-04   280   0.782E-02
 136 F= -.61503813E+02 E0= -.61503811E+02  d E =-.110951E-02
 ZBRENT: can't locate minimum, use default step
 trial-energy change:   -0.001110  1 .order   -0.001122   -0.001232   -0.001012
 step:   0.7480(harm=  1.0466)  dis= 0.00566  next Energy=   -61.506151 (dE=-0.345E-02)
 bond charge predicted
       N       E                     dE             d eps       ncg     rms          rms(c)
DAV:   1    -0.615062325679E+02   -0.23618E-02   -0.50577E-01   384   0.499E+00    0.232E-01
DAV:   2    -0.615062990766E+02   -0.66509E-04   -0.10626E-02   576   0.713E-01    0.140E-01
DAV:   3    -0.615058315488E+02    0.46753E-03   -0.11180E-03   568   0.230E-01    0.403E-02
DAV:   4    -0.615058131425E+02    0.18406E-04   -0.11821E-04   312   0.819E-02
 137 F= -.61505813E+02 E0= -.61505811E+02  d E =-.310939E-02
 curvature:  -1.52 expect dE=-0.204E-01 dE for cont linesearch -0.344E-03
 trial: gam= 0.00000 g(F)=  0.103E-01 g(S)=  0.307E-02 ort = 0.222E-02 (trialstep = 0.299E+00)
 search vector abs. value=  0.134E-01
 bond charge predicted
       N       E                     dE             d eps       ncg     rms          rms(c)
DAV:   1    -0.615076022375E+02   -0.17707E-02   -0.10583E-01   384   0.235E+00    0.127E-01
DAV:   2    -0.615075712205E+02    0.31017E-04   -0.36058E-03   512   0.411E-01    0.754E-02
DAV:   3    -0.615074805401E+02    0.90680E-04   -0.71218E-04   456   0.177E-01
 138 F= -.61507481E+02 E0= -.61507478E+02  d E =-.166740E-02
 trial-energy change:   -0.001667  1 .order   -0.001594   -0.004015    0.000827
 step:   0.2481(harm=  0.2481)  dis= 0.00325  next Energy=   -61.507478 (dE=-0.166E-02)
 bond charge predicted
       N       E                     dE             d eps       ncg     rms          rms(c)
DAV:   1    -0.615075386976E+02    0.32523E-04   -0.29496E-03   384   0.391E-01    0.181E-02
DAV:   2    -0.615075478346E+02   -0.91370E-05   -0.11296E-04   352   0.730E-02
 139 F= -.61507548E+02 E0= -.61507546E+02  d E =-.173469E-02
 curvature:  -0.12 expect dE=-0.357E-03 dE for cont linesearch -0.252E-08
 trial: gam= 0.21352 g(F)=  0.179E-02 g(S)=  0.109E-02 ort = 0.165E-04 (trialstep = 0.289E+00)
 search vector abs. value=  0.350E-02
 reached required accuracy - stopping structural energy minimisation
 writing wavefunctions
Sun Mar  6 20:18:19 CST 2022
