Sun Mar  6 20:18:34 CST 2022
 running on   48 total cores
 distrk:  each k-point on   48 cores,    1 groups
 distr:  one band on   24 cores,    2 groups
 using from now: INCAR     
 vasp.5.3.5 31Mar14 (build Jan 11 2016 19:50:55) complex                        
  
 POSCAR found type information on POSCAR  B  C  Na
 POSCAR found :  3 types and       9 ions
 scaLAPACK will be used

 ----------------------------------------------------------------------------- 
|                                                                             |
|           W    W    AA    RRRRR   N    N  II  N    N   GGGG   !!!           |
|           W    W   A  A   R    R  NN   N  II  NN   N  G    G  !!!           |
|           W    W  A    A  R    R  N N  N  II  N N  N  G       !!!           |
|           W WW W  AAAAAA  RRRRR   N  N N  II  N  N N  G  GGG   !            |
|           WW  WW  A    A  R   R   N   NN  II  N   NN  G    G                |
|           W    W  A    A  R    R  N    N  II  N    N   GGGG   !!!           |
|                                                                             |
|      For optimal performance we recommend to set                            |
|        NCORE= 4 - approx SQRT( number of cores)                             |
|      NCORE specifies how many cores store one orbital (NPAR=cpu/NCORE).     |
|      This setting can  greatly improve the performance of VASP for DFT.     |
|      The default, NPAR=number of cores might be grossly inefficient         |
|      on modern multi-core architectures or massively parallel machines.     |
|      Do your own testing !!!!                                               |
|      Unfortunately you need to use the default for GW and RPA calculations. |
|      (for HF NCORE is supported but not extensively tested yet)             |
|                                                                             |
 ----------------------------------------------------------------------------- 

 LDA part: xc-table for Pade appr. of Perdew
 POSCAR, INCAR and KPOINTS ok, starting setup
 WARNING: small aliasing (wrap around) errors must be expected
 FFT: planning ...
 WAVECAR not read
 entering main loop
       N       E                     dE             d eps       ncg     rms          rms(c)
DAV:   1     0.283665456136E+03    0.28367E+03   -0.11467E+04   464   0.830E+02
DAV:   2    -0.120372233035E+02   -0.29570E+03   -0.28751E+03   640   0.228E+02
DAV:   3    -0.719380755611E+02   -0.59901E+02   -0.59099E+02   448   0.108E+02
DAV:   4    -0.750133557657E+02   -0.30753E+01   -0.30644E+01   520   0.329E+01
DAV:   5    -0.750692282547E+02   -0.55872E-01   -0.55732E-01   512   0.415E+00    0.143E+01
DAV:   6    -0.673877098358E+02    0.76815E+01   -0.11119E+01   536   0.189E+01    0.765E+00
DAV:   7    -0.649642644461E+02    0.24234E+01   -0.63781E+00   464   0.132E+01    0.288E+00
DAV:   8    -0.646844686054E+02    0.27980E+00   -0.56893E-01   504   0.410E+00    0.712E-01
DAV:   9    -0.646026950682E+02    0.81774E-01   -0.49556E-02   464   0.132E+00    0.380E-01
DAV:  10    -0.645503532600E+02    0.52342E-01   -0.20944E-02   488   0.789E-01    0.233E-01
DAV:  11    -0.645150451112E+02    0.35308E-01   -0.34040E-02   520   0.884E-01    0.125E-01
DAV:  12    -0.645159849790E+02   -0.93987E-03   -0.39950E-03   512   0.323E-01    0.881E-02
DAV:  13    -0.645235304691E+02   -0.75455E-02   -0.33401E-03   384   0.234E-01    0.508E-02
DAV:  14    -0.645303378404E+02   -0.68074E-02   -0.11103E-03   320   0.133E-01    0.271E-02
DAV:  15    -0.645351269980E+02   -0.47892E-02   -0.79391E-04   384   0.105E-01    0.178E-02
DAV:  16    -0.645373859892E+02   -0.22590E-02   -0.38352E-04   392   0.706E-02    0.974E-03
DAV:  17    -0.645379687490E+02   -0.58276E-03   -0.56528E-05   344   0.308E-02    0.726E-03
DAV:  18    -0.645383304093E+02   -0.36166E-03   -0.61017E-05   304   0.271E-02    0.276E-03
DAV:  19    -0.645384085210E+02   -0.78112E-04   -0.98344E-06   344   0.143E-02
   1 F= -.64538409E+02 E0= -.64524146E+02  d E =-.645384E+02
 curvature:   0.00 expect dE= 0.000E+00 dE for cont linesearch  0.000E+00
 trial: gam= 0.00000 g(F)=  0.631E+00 g(S)=  0.122E+00 ort = 0.000E+00 (trialstep = 0.100E+01)
 search vector abs. value=  0.753E+00
 bond charge predicted
       N       E                     dE             d eps       ncg     rms          rms(c)
DAV:   1    -0.645024160578E+02    0.35914E-01   -0.10309E+02   480   0.760E+01    0.356E+00
DAV:   2    -0.643440113824E+02    0.15840E+00   -0.21633E+00   520   0.113E+01    0.182E+00
DAV:   3    -0.642557097382E+02    0.88302E-01   -0.53285E-01   512   0.437E+00    0.445E-01
DAV:   4    -0.642513742530E+02    0.43355E-02   -0.37476E-02   464   0.121E+00    0.246E-01
DAV:   5    -0.642500015377E+02    0.13727E-02   -0.61713E-03   520   0.442E-01    0.970E-02
DAV:   6    -0.642497547674E+02    0.24677E-03   -0.81540E-04   464   0.174E-01    0.447E-02
DAV:   7    -0.642497593098E+02   -0.45424E-05   -0.16510E-04   344   0.816E-02
   2 F= -.64249759E+02 E0= -.64249633E+02  d E =0.288649E+00
 trial-energy change:    0.288649  1 .order    0.301632   -0.752934    1.356199
 step:   0.3656(harm=  0.3570)  dis= 0.04151  next Energy=   -64.676661 (dE=-0.138E+00)
 bond charge predicted
       N       E                     dE             d eps       ncg     rms          rms(c)
DAV:   1    -0.647583191087E+02   -0.50856E+00   -0.36103E+01   392   0.384E+01    0.219E+00
DAV:   2    -0.647123843485E+02    0.45935E-01   -0.10696E+00   504   0.685E+00    0.121E+00
DAV:   3    -0.646778140190E+02    0.34570E-01   -0.20398E-01   448   0.288E+00    0.330E-01
DAV:   4    -0.646778176778E+02   -0.36588E-05   -0.16121E-02   504   0.826E-01    0.195E-01
DAV:   5    -0.646786425222E+02   -0.82484E-03   -0.19886E-03   472   0.308E-01    0.545E-02
DAV:   6    -0.646790942993E+02   -0.45178E-03   -0.38100E-04   480   0.149E-01    0.232E-02
DAV:   7    -0.646794508537E+02   -0.35655E-03   -0.75761E-05   320   0.474E-02    0.971E-03
DAV:   8    -0.646796743006E+02   -0.22345E-03   -0.56524E-05   368   0.335E-02    0.691E-03
DAV:   9    -0.646799542881E+02   -0.27999E-03   -0.11248E-04   376   0.351E-02    0.455E-03
DAV:  10    -0.646800177538E+02   -0.63466E-04   -0.13560E-05   336   0.158E-02
   3 F= -.64680018E+02 E0= -.64677033E+02  d E =-.141609E+00
 curvature:  -0.18 expect dE=-0.216E+00 dE for cont linesearch -0.121E-04
 trial: gam= 1.61946 g(F)=  0.117E+01 g(S)=  0.426E-01 ort =-0.714E-02 (trialstep = 0.208E+00)
 search vector abs. value=  0.316E+01
 bond charge predicted
       N       E                     dE             d eps       ncg     rms          rms(c)
DAV:   1    -0.648181388750E+02   -0.13818E+00   -0.15424E+01   416   0.257E+01    0.113E+00
DAV:   2    -0.648360535221E+02   -0.17915E-01   -0.50930E-01   448   0.405E+00    0.624E-01
DAV:   3    -0.648281907680E+02    0.78628E-02   -0.58379E-02   528   0.144E+00    0.184E-01
DAV:   4    -0.648275283892E+02    0.66238E-03   -0.43366E-03   464   0.388E-01    0.965E-02
DAV:   5    -0.648273677225E+02    0.16067E-03   -0.85451E-04   520   0.185E-01    0.254E-02
DAV:   6    -0.648273995441E+02   -0.31822E-04   -0.83821E-05   352   0.672E-02
   4 F= -.64827400E+02 E0= -.64823573E+02  d E =-.147382E+00
 trial-energy change:   -0.147382  1 .order   -0.150327   -0.249481   -0.051172
 step:   0.2684(harm=  0.2614)  dis= 0.06981  next Energy=   -64.834787 (dE=-0.155E+00)
 bond charge predicted
       N       E                     dE             d eps       ncg     rms          rms(c)
DAV:   1    -0.648342927426E+02   -0.69250E-02   -0.12582E+00   416   0.682E+00    0.324E-01
DAV:   2    -0.648351860213E+02   -0.89328E-03   -0.36704E-02   448   0.107E+00    0.181E-01
DAV:   3    -0.648345428861E+02    0.64314E-03   -0.47345E-03   520   0.418E-01    0.514E-02
DAV:   4    -0.648345197934E+02    0.23093E-04   -0.39773E-04   440   0.117E-01
   5 F= -.64834520E+02 E0= -.64829878E+02  d E =-.154502E+00
 curvature:  -0.34 expect dE=-0.494E-01 dE for cont linesearch -0.512E-05
 trial: gam= 0.16236 g(F)=  0.663E-01 g(S)=  0.796E-01 ort =-0.692E-02 (trialstep = 0.220E+00)
 search vector abs. value=  0.227E+00
 bond charge predicted
       N       E                     dE             d eps       ncg     rms          rms(c)
DAV:   1    -0.648573576074E+02   -0.22815E-01   -0.13971E+00   416   0.702E+00    0.319E-01
DAV:   2    -0.648576696770E+02   -0.31207E-03   -0.30351E-02   480   0.113E+00    0.200E-01
DAV:   3    -0.648568792868E+02    0.79039E-03   -0.60116E-03   464   0.548E-01    0.711E-02
DAV:   4    -0.648568276374E+02    0.51649E-04   -0.90695E-04   472   0.191E-01
   6 F= -.64856828E+02 E0= -.64849912E+02  d E =-.223078E-01
 trial-energy change:   -0.022308  1 .order   -0.022363   -0.031828   -0.012898
 step:   0.3697(harm=  0.3697)  dis= 0.02654  next Energy=   -64.861276 (dE=-0.268E-01)
 bond charge predicted
       N       E                     dE             d eps       ncg     rms          rms(c)
DAV:   1    -0.648620189606E+02   -0.51397E-02   -0.65371E-01   424   0.480E+00    0.225E-01
DAV:   2    -0.648620429705E+02   -0.24010E-04   -0.14669E-02   448   0.795E-01    0.142E-01
DAV:   3    -0.648616626964E+02    0.38027E-03   -0.32201E-03   528   0.392E-01    0.513E-02
DAV:   4    -0.648616295053E+02    0.33191E-04   -0.48111E-04   432   0.136E-01
   7 F= -.64861630E+02 E0= -.64852905E+02  d E =-.271097E-01
 curvature:  -0.29 expect dE=-0.388E-01 dE for cont linesearch -0.150E-04
 trial: gam= 0.91735 g(F)=  0.107E+00 g(S)=  0.268E-01 ort = 0.343E-02 (trialstep = 0.171E+00)
 search vector abs. value=  0.331E+00
 bond charge predicted
       N       E                     dE             d eps       ncg     rms          rms(c)
DAV:   1    -0.648752664014E+02   -0.13604E-01   -0.11937E+00   384   0.658E+00    0.316E-01
DAV:   2    -0.648758761392E+02   -0.60974E-03   -0.25907E-02   528   0.954E-01    0.213E-01
DAV:   3    -0.648750514944E+02    0.82464E-03   -0.33100E-03   408   0.472E-01    0.405E-02
DAV:   4    -0.648750266235E+02    0.24871E-04   -0.46394E-04   432   0.150E-01
   8 F= -.64875027E+02 E0= -.64864753E+02  d E =-.133971E-01
 trial-energy change:   -0.013397  1 .order   -0.013124   -0.023458   -0.002791
 step:   0.1945(harm=  0.1945)  dis= 0.01631  next Energy=   -64.874942 (dE=-0.133E-01)
 bond charge predicted
       N       E                     dE             d eps       ncg     rms          rms(c)
DAV:   1    -0.648752953830E+02   -0.24389E-03   -0.22401E-02   400   0.905E-01    0.434E-02
DAV:   2    -0.648753148766E+02   -0.19494E-04   -0.53000E-04   384   0.139E-01
   9 F= -.64875315E+02 E0= -.64864813E+02  d E =-.136854E-01
 curvature:  -0.24 expect dE=-0.784E-02 dE for cont linesearch -0.880E-05
 trial: gam= 0.26144 g(F)=  0.260E-01 g(S)=  0.734E-02 ort = 0.352E-02 (trialstep = 0.176E+00)
 search vector abs. value=  0.578E-01
 bond charge predicted
       N       E                     dE             d eps       ncg     rms          rms(c)
DAV:   1    -0.648810054322E+02   -0.57100E-02   -0.24296E-01   384   0.312E+00    0.147E-01
DAV:   2    -0.648807244948E+02    0.28094E-03   -0.54006E-03   448   0.485E-01    0.798E-02
DAV:   3    -0.648806337670E+02    0.90728E-04   -0.11884E-03   512   0.214E-01    0.306E-02
DAV:   4    -0.648806260675E+02    0.76995E-05   -0.14915E-04   304   0.768E-02
  10 F= -.64880626E+02 E0= -.64869449E+02  d E =-.531119E-02
 trial-energy change:   -0.005311  1 .order   -0.005180   -0.006029   -0.004330
 step:   0.6243(harm=  0.6243)  dis= 0.02111  next Energy=   -64.886011 (dE=-0.107E-01)
 bond charge predicted
       N       E                     dE             d eps       ncg     rms          rms(c)
DAV:   1    -0.648893380496E+02   -0.87043E-02   -0.15690E+00   384   0.792E+00    0.375E-01
DAV:   2    -0.648870798392E+02    0.22582E-02   -0.34870E-02   464   0.125E+00    0.202E-01
DAV:   3    -0.648864066965E+02    0.67314E-03   -0.67583E-03   528   0.520E-01    0.806E-02
DAV:   4    -0.648863545928E+02    0.52104E-04   -0.87956E-04   416   0.182E-01
  11 F= -.64886355E+02 E0= -.64873512E+02  d E =-.110397E-01
 curvature:  -0.53 expect dE=-0.199E-01 dE for cont linesearch -0.486E-05
 trial: gam= 1.17279 g(F)=  0.297E-01 g(S)=  0.812E-02 ort = 0.730E-03 (trialstep = 0.129E+00)
 search vector abs. value=  0.119E+00
 bond charge predicted
       N       E                     dE             d eps       ncg     rms          rms(c)
DAV:   1    -0.648905752190E+02   -0.41685E-02   -0.27394E-01   384   0.327E+00    0.124E-01
DAV:   2    -0.648905304323E+02    0.44787E-04   -0.54111E-03   472   0.463E-01    0.749E-02
DAV:   3    -0.648904187371E+02    0.11170E-03   -0.66352E-04   432   0.176E-01    0.266E-02
DAV:   4    -0.648904224558E+02   -0.37187E-05   -0.75641E-05   320   0.574E-02
  12 F= -.64890422E+02 E0= -.64877754E+02  d E =-.406786E-02
 trial-energy change:   -0.004068  1 .order   -0.004053   -0.004993   -0.003113
 step:   0.3426(harm=  0.3426)  dis= 0.01666  next Energy=   -64.892987 (dE=-0.663E-02)
 bond charge predicted
       N       E                     dE             d eps       ncg     rms          rms(c)
DAV:   1    -0.648934386864E+02   -0.30199E-02   -0.75376E-01   384   0.542E+00    0.204E-01
DAV:   2    -0.648933797229E+02    0.58964E-04   -0.14800E-02   448   0.769E-01    0.123E-01
DAV:   3    -0.648930671434E+02    0.31258E-03   -0.18776E-03   448   0.297E-01    0.449E-02
DAV:   4    -0.648930559087E+02    0.11235E-04   -0.24982E-04   416   0.970E-02
  13 F= -.64893056E+02 E0= -.64880570E+02  d E =-.670132E-02
 curvature:  -0.53 expect dE=-0.307E-01 dE for cont linesearch -0.298E-05
 trial: gam= 1.51585 g(F)=  0.399E-01 g(S)=  0.184E-01 ort = 0.821E-03 (trialstep = 0.611E-01)
 search vector abs. value=  0.334E+00
 bond charge predicted
       N       E                     dE             d eps       ncg     rms          rms(c)
DAV:   1    -0.648967596846E+02   -0.36925E-02   -0.16595E-01   384   0.247E+00    0.109E-01
DAV:   2    -0.648965429990E+02    0.21669E-03   -0.31963E-03   432   0.335E-01    0.551E-02
DAV:   3    -0.648964710060E+02    0.71993E-04   -0.22101E-04   344   0.101E-01
  14 F= -.64896471E+02 E0= -.64883796E+02  d E =-.341510E-02
 ZBRENT: can't locate minimum, use default step
 trial-energy change:   -0.003415  1 .order   -0.003456   -0.003639   -0.003274
 step:   0.2445(harm=  0.6095)  dis= 0.01958  next Energy=   -64.911194 (dE=-0.181E-01)
 bond charge predicted
       N       E                     dE             d eps       ncg     rms          rms(c)
DAV:   1    -0.649071932335E+02   -0.10650E-01   -0.14931E+00   384   0.740E+00    0.339E-01
DAV:   2    -0.649049604774E+02    0.22328E-02   -0.28686E-02   416   0.101E+00    0.165E-01
DAV:   3    -0.649043901340E+02    0.57034E-03   -0.17453E-03   488   0.290E-01    0.732E-02
DAV:   4    -0.649043117800E+02    0.78354E-04   -0.41379E-04   432   0.132E-01
  15 F= -.64904312E+02 E0= -.64890963E+02  d E =-.112559E-01
 curvature:  -0.95 expect dE=-0.269E-01 dE for cont linesearch -0.301E-02
 ZBRENT: increasing intervall
 opt :   0.6114  next Energy=   -64.908507 (dE=-0.155E-01)
 bond charge predicted
       N       E                     dE             d eps       ncg     rms          rms(c)
DAV:   1    -0.649228094533E+02   -0.18419E-01   -0.59887E+00   384   0.148E+01    0.710E-01
DAV:   2    -0.649122487055E+02    0.10561E-01   -0.11848E-01   416   0.206E+00    0.323E-01
DAV:   3    -0.649103221723E+02    0.19265E-02   -0.58506E-03   496   0.572E-01    0.166E-01
DAV:   4    -0.649098423736E+02    0.47980E-03   -0.23304E-03   448   0.314E-01    0.372E-02
DAV:   5    -0.649099228065E+02   -0.80433E-04   -0.34956E-04   464   0.125E-01
  16 F= -.64909923E+02 E0= -.64895368E+02  d E =-.168669E-01
 curvature:  -1.33 expect dE=-0.633E-01 dE for cont linesearch -0.174E-04
 trial: gam= 0.81647 g(F)=  0.329E-01 g(S)=  0.147E-01 ort =-0.209E-02 (trialstep = 0.171E+00)
 search vector abs. value=  0.267E+00
 bond charge predicted
       N       E                     dE             d eps       ncg     rms          rms(c)
DAV:   1    -0.649201384776E+02   -0.10296E-01   -0.96941E-01   384   0.586E+00    0.336E-01
DAV:   2    -0.649175812345E+02    0.25572E-02   -0.20434E-02   416   0.850E-01    0.178E-01
DAV:   3    -0.649167819418E+02    0.79929E-03   -0.22303E-03   448   0.320E-01    0.753E-02
DAV:   4    -0.649167731729E+02    0.87689E-05   -0.42559E-04   440   0.129E-01
  17 F= -.64916773E+02 E0= -.64902295E+02  d E =-.685037E-02
 trial-energy change:   -0.006850  1 .order   -0.006728   -0.007855   -0.005602
 step:   0.5967(harm=  0.5967)  dis= 0.03948  next Energy=   -64.923614 (dE=-0.137E-01)
 bond charge predicted
       N       E                     dE             d eps       ncg     rms          rms(c)
DAV:   1    -0.649461202645E+02   -0.29338E-01   -0.59538E+00   384   0.145E+01    0.866E-01
DAV:   2    -0.649292303981E+02    0.16890E-01   -0.12891E-01   416   0.218E+00    0.441E-01
DAV:   3    -0.649247471499E+02    0.44832E-02   -0.11246E-02   432   0.765E-01    0.213E-01
DAV:   4    -0.649241039458E+02    0.64320E-03   -0.31610E-03   464   0.364E-01    0.760E-02
DAV:   5    -0.649241543551E+02   -0.50409E-04   -0.44021E-04   472   0.143E-01
  18 F= -.64924154E+02 E0= -.64909905E+02  d E =-.142315E-01
 curvature:  -1.74 expect dE=-0.243E+00 dE for cont linesearch -0.935E-04
 trial: gam= 2.84288 g(F)=  0.122E+00 g(S)=  0.181E-01 ort = 0.379E-02 (trialstep = 0.295E-01)
 search vector abs. value=  0.232E+01
 bond charge predicted
       N       E                     dE             d eps       ncg     rms          rms(c)
DAV:   1    -0.649293489285E+02   -0.52450E-02   -0.23792E-01   400   0.294E+00    0.175E-01
DAV:   2    -0.649286409945E+02    0.70793E-03   -0.50562E-03   424   0.417E-01    0.888E-02
DAV:   3    -0.649284807542E+02    0.16024E-03   -0.45097E-04   464   0.141E-01    0.342E-02
DAV:   4    -0.649285315270E+02   -0.50773E-04   -0.84444E-05   304   0.634E-02
  19 F= -.64928532E+02 E0= -.64914224E+02  d E =-.437717E-02
 ZBRENT: can't locate minimum, use default step
 trial-energy change:   -0.004377  1 .order   -0.004187   -0.004451   -0.003922
 step:   0.1180(harm=  0.2485)  dis= 0.02196  next Energy=   -64.942897 (dE=-0.187E-01)
 bond charge predicted
       N       E                     dE             d eps       ncg     rms          rms(c)
DAV:   1    -0.649477338207E+02   -0.19253E-01   -0.21416E+00   400   0.878E+00    0.538E-01
DAV:   2    -0.649408627055E+02    0.68711E-02   -0.46929E-02   440   0.128E+00    0.266E-01
DAV:   3    -0.649392535431E+02    0.16092E-02   -0.32998E-03   432   0.410E-01    0.115E-01
DAV:   4    -0.649390218718E+02    0.23167E-03   -0.10512E-03   424   0.219E-01    0.275E-02
DAV:   5    -0.649390787530E+02   -0.56881E-04   -0.12546E-04   392   0.847E-02
  20 F= -.64939079E+02 E0= -.64924867E+02  d E =-.149244E-01
 curvature:  -1.23 expect dE=-0.891E-01 dE for cont linesearch -0.572E-02
 ZBRENT: increasing intervall
 opt :   0.2950  next Energy=   -64.952286 (dE=-0.281E-01)
 bond charge predicted
       N       E                     dE             d eps       ncg     rms          rms(c)
DAV:   1    -0.649883852690E+02   -0.49363E-01   -0.85436E+00   384   0.175E+01    0.112E+00
DAV:   2    -0.649589501956E+02    0.29435E-01   -0.19576E-01   424   0.270E+00    0.537E-01
DAV:   3    -0.649528157584E+02    0.61344E-02   -0.11865E-02   448   0.840E-01    0.259E-01
DAV:   4    -0.649513771743E+02    0.14386E-02   -0.56229E-03   416   0.525E-01    0.584E-02
DAV:   5    -0.649514711929E+02   -0.94019E-04   -0.75227E-04   432   0.207E-01
  21 F= -.64951471E+02 E0= -.64937594E+02  d E =-.273168E-01
 curvature:  -2.85 expect dE=-0.187E+00 dE for cont linesearch -0.203E-02
 ZBRENT: increasing intervall
 opt :   0.6490  next Energy=   -64.943518 (dE=-0.194E-01)
 bond charge predicted
       N       E                     dE             d eps       ncg     rms          rms(c)
DAV:   1    -0.651058099750E+02   -0.15443E+00   -0.34193E+01   384   0.351E+01    0.236E+00
DAV:   2    -0.649764597553E+02    0.12935E+00   -0.85322E-01   440   0.603E+00    0.111E+00
DAV:   3    -0.649510041010E+02    0.25456E-01   -0.47002E-02   456   0.179E+00    0.576E-01
DAV:   4    -0.649434427745E+02    0.75613E-02   -0.27684E-02   416   0.120E+00    0.131E-01
DAV:   5    -0.649435639665E+02   -0.12119E-03   -0.41325E-03   464   0.483E-01    0.538E-02
DAV:   6    -0.649437874981E+02   -0.22353E-03   -0.55467E-04   440   0.131E-01    0.271E-02
DAV:   7    -0.649440459882E+02   -0.25849E-03   -0.85268E-05   312   0.525E-02    0.144E-02
DAV:   8    -0.649444811122E+02   -0.43512E-03   -0.24366E-04   336   0.655E-02    0.119E-02
DAV:   9    -0.649447020951E+02   -0.22098E-03   -0.85022E-05   280   0.572E-02    0.641E-03
DAV:  10    -0.649448329092E+02   -0.13081E-03   -0.58754E-05   296   0.371E-02    0.501E-03
DAV:  11    -0.649448814704E+02   -0.48561E-04   -0.22751E-05   280   0.265E-02
  22 F= -.64944881E+02 E0= -.64930927E+02  d E =-.207271E-01
 curvature:  11.16 expect dE= 0.448E+01 dE for cont linesearch  0.342E-01
 ZBRENT: bracketing found
 ZBRENT: interpolating
 opt :   0.4102  next Energy=   -64.953812 (dE=-0.297E-01)
 bond charge predicted
       N       E                     dE             d eps       ncg     rms          rms(c)
DAV:   1    -0.650214189456E+02   -0.76586E-01   -0.16627E+01   448   0.254E+01    0.140E+00
DAV:   2    -0.649745551291E+02    0.46864E-01   -0.20123E-01   448   0.314E+00    0.768E-01
DAV:   3    -0.649552470473E+02    0.19308E-01   -0.59899E-02   464   0.131E+00    0.217E-01
DAV:   4    -0.649541754153E+02    0.10716E-02   -0.44729E-03   424   0.372E-01    0.111E-01
DAV:   5    -0.649539753344E+02    0.20008E-03   -0.76469E-04   424   0.160E-01    0.327E-02
DAV:   6    -0.649539940231E+02   -0.18689E-04   -0.10991E-04   336   0.693E-02
  23 F= -.64953994E+02 E0= -.64939962E+02  d E =-.298397E-01
 curvature:  -0.76 expect dE=-0.941E-01 dE for cont linesearch -0.193E-05
 trial: gam= 1.06136 g(F)=  0.956E-01 g(S)=  0.276E-01 ort =-0.242E-02 (trialstep = 0.897E-01)
 search vector abs. value=  0.273E+01
 bond charge predicted
       N       E                     dE             d eps       ncg     rms          rms(c)
DAV:   1    -0.649797961069E+02   -0.25821E-01   -0.25183E+00   384   0.966E+00    0.681E-01
DAV:   2    -0.649667819525E+02    0.13014E-01   -0.62026E-02   400   0.147E+00    0.308E-01
DAV:   3    -0.649651124644E+02    0.16695E-02   -0.46358E-03   416   0.477E-01    0.142E-01
DAV:   4    -0.649648576120E+02    0.25485E-03   -0.13522E-03   456   0.263E-01    0.373E-02
DAV:   5    -0.649648537360E+02    0.38760E-05   -0.14920E-04   344   0.864E-02
  24 F= -.64964854E+02 E0= -.64950778E+02  d E =-.108597E-01
 ZBRENT: can't locate minimum, use default step
 trial-energy change:   -0.010860  1 .order   -0.010146   -0.010824   -0.009468
 step:   0.3589(harm=  0.7162)  dis= 0.06876  next Energy=   -64.997191 (dE=-0.432E-01)
 bond charge predicted
       N       E                     dE             d eps       ncg     rms          rms(c)
DAV:   1    -0.651454415353E+02   -0.18058E+00   -0.22468E+01   384   0.287E+01    0.220E+00
DAV:   2    -0.650098479888E+02    0.13559E+00   -0.63825E-01   400   0.499E+00    0.954E-01
DAV:   3    -0.649929360006E+02    0.16912E-01   -0.36854E-02   424   0.153E+00    0.511E-01
DAV:   4    -0.649875684733E+02    0.53675E-02   -0.18418E-02   432   0.102E+00    0.130E-01
DAV:   5    -0.649875914640E+02   -0.22991E-04   -0.25882E-03   400   0.371E-01    0.496E-02
DAV:   6    -0.649877773347E+02   -0.18587E-03   -0.46446E-04   408   0.122E-01    0.230E-02
DAV:   7    -0.649879565406E+02   -0.17921E-03   -0.68055E-05   280   0.531E-02    0.125E-02
DAV:   8    -0.649882581075E+02   -0.30157E-03   -0.15214E-04   336   0.523E-02    0.100E-02
DAV:   9    -0.649883805394E+02   -0.12243E-03   -0.42660E-05   288   0.440E-02    0.479E-03
DAV:  10    -0.649885091615E+02   -0.12862E-03   -0.46564E-05   256   0.290E-02    0.528E-03
DAV:  11    -0.649885475537E+02   -0.38392E-04   -0.13797E-05   272   0.201E-02
  25 F= -.64988548E+02 E0= -.64973970E+02  d E =-.345535E-01
 curvature:  -5.47 expect dE=-0.521E+00 dE for cont linesearch -0.866E-02
 ZBRENT: increasing intervall
 opt :   0.8972  next Energy=   -65.002553 (dE=-0.486E-01)
 bond charge predicted
       N       E                     dE             d eps       ncg     rms          rms(c)
DAV:   1    -0.656609777611E+02   -0.67247E+00   -0.90421E+01   384   0.586E+01    0.451E+00
DAV:   2    -0.650954666426E+02    0.56551E+00   -0.26161E+00   432   0.111E+01    0.202E+00
DAV:   3    -0.650223410269E+02    0.73126E-01   -0.17308E-01   432   0.329E+00    0.107E+00
DAV:   4    -0.650033544430E+02    0.18987E-01   -0.57123E-02   416   0.174E+00    0.294E-01
DAV:   5    -0.650031322177E+02    0.22223E-03   -0.62507E-03   432   0.537E-01    0.848E-02
DAV:   6    -0.650034555242E+02   -0.32331E-03   -0.86264E-04   456   0.174E-01    0.387E-02
DAV:   7    -0.650039854738E+02   -0.52995E-03   -0.23278E-04   344   0.791E-02    0.177E-02
DAV:   8    -0.650044432903E+02   -0.45782E-03   -0.23707E-04   336   0.683E-02    0.136E-02
DAV:   9    -0.650047895579E+02   -0.34627E-03   -0.14470E-04   320   0.590E-02    0.776E-03
DAV:  10    -0.650049402754E+02   -0.15072E-03   -0.62924E-05   304   0.377E-02    0.495E-03
DAV:  11    -0.650050159738E+02   -0.75698E-04   -0.35950E-05   296   0.248E-02
  26 F= -.65005016E+02 E0= -.64990001E+02  d E =-.510220E-01
 curvature:  -8.85 expect dE=-0.277E+01 dE for cont linesearch -0.325E-03
 trial: gam= 2.52520 g(F)=  0.196E+00 g(S)=  0.117E+00 ort =-0.100E-01 (trialstep = 0.388E-01)
 search vector abs. value=  0.177E+02
 bond charge predicted
       N       E                     dE             d eps       ncg     rms          rms(c)
DAV:   1    -0.650345533090E+02   -0.29613E-01   -0.29843E+00   384   0.106E+01    0.763E-01
DAV:   2    -0.650178553468E+02    0.16698E-01   -0.76640E-02   400   0.164E+00    0.339E-01
DAV:   3    -0.650156991041E+02    0.21562E-02   -0.54236E-03   432   0.525E-01    0.159E-01
DAV:   4    -0.650151413685E+02    0.55774E-03   -0.15045E-03   416   0.293E-01    0.331E-02
DAV:   5    -0.650151518372E+02   -0.10469E-04   -0.16307E-04   368   0.888E-02
  27 F= -.65015152E+02 E0= -.65000413E+02  d E =-.101359E-01
 ZBRENT: can't locate minimum, use default step
 trial-energy change:   -0.010136  1 .order   -0.010116   -0.011169   -0.009063
 step:   0.1553(harm=  0.2059)  dis= 0.07356  next Energy=   -65.034636 (dE=-0.296E-01)
 bond charge predicted
       N       E                     dE             d eps       ncg     rms          rms(c)
DAV:   1    -0.652274782562E+02   -0.21234E+00   -0.26629E+01   384   0.315E+01    0.244E+00
DAV:   2    -0.650624429452E+02    0.16504E+00   -0.78446E-01   424   0.553E+00    0.106E+00
DAV:   3    -0.650422118904E+02    0.20231E-01   -0.44551E-02   448   0.170E+00    0.552E-01
DAV:   4    -0.650349436405E+02    0.72682E-02   -0.19387E-02   424   0.110E+00    0.115E-01
DAV:   5    -0.650350116790E+02   -0.68038E-04   -0.24214E-03   408   0.352E-01    0.592E-02
DAV:   6    -0.650352402213E+02   -0.22854E-03   -0.50218E-04   400   0.152E-01    0.217E-02
DAV:   7    -0.650354496208E+02   -0.20940E-03   -0.82892E-05   272   0.565E-02    0.128E-02
DAV:   8    -0.650357932093E+02   -0.34359E-03   -0.18147E-04   336   0.549E-02    0.884E-03
DAV:   9    -0.650359554422E+02   -0.16223E-03   -0.44826E-05   312   0.348E-02    0.460E-03
DAV:  10    -0.650360622225E+02   -0.10678E-03   -0.49001E-05   280   0.245E-02    0.348E-03
DAV:  11    -0.650361017660E+02   -0.39543E-04   -0.15511E-05   320   0.180E-02
  28 F= -.65036102E+02 E0= -.65021767E+02  d E =-.310858E-01
 curvature:  -5.74 expect dE=-0.595E+00 dE for cont linesearch -0.375E-02
 ZBRENT: increasing intervall
 opt :   0.3881  next Energy=   -65.031759 (dE=-0.267E-01)
 bond charge predicted
       N       E                     dE             d eps       ncg     rms          rms(c)
DAV:   1    -0.658250351604E+02   -0.78897E+00   -0.10762E+02   384   0.645E+01    0.505E+00
DAV:   2    -0.651464806868E+02    0.67855E+00   -0.32717E+00   416   0.126E+01    0.228E+00
DAV:   3    -0.650547056018E+02    0.91775E-01   -0.23059E-01   456   0.386E+00    0.113E+00
DAV:   4    -0.650304933681E+02    0.24212E-01   -0.64426E-02   416   0.190E+00    0.290E-01
DAV:   5    -0.650301813859E+02    0.31198E-03   -0.66134E-03   424   0.537E-01    0.111E-01
DAV:   6    -0.650305495934E+02   -0.36821E-03   -0.10045E-03   440   0.217E-01    0.389E-02
DAV:   7    -0.650311184166E+02   -0.56882E-03   -0.29509E-04   336   0.900E-02    0.208E-02
DAV:   8    -0.650317641117E+02   -0.64570E-03   -0.40739E-04   336   0.974E-02    0.140E-02
DAV:   9    -0.650321065901E+02   -0.34248E-03   -0.15775E-04   344   0.652E-02    0.870E-03
DAV:  10    -0.650322679257E+02   -0.16134E-03   -0.82178E-05   320   0.418E-02    0.497E-03
DAV:  11    -0.650323459589E+02   -0.78033E-04   -0.42489E-05   288   0.275E-02
  29 F= -.65032346E+02 E0= -.65019569E+02  d E =-.273300E-01
 curvature:   6.65 expect dE= 0.289E+01 dE for cont linesearch  0.104E-01
 ZBRENT: bracketing found
 ZBRENT: interpolating
 opt :   0.2468  next Energy=   -65.041018 (dE=-0.360E-01)
 bond charge predicted
       N       E                     dE             d eps       ncg     rms          rms(c)
DAV:   1    -0.652817869071E+02   -0.24952E+00   -0.44161E+01   448   0.440E+01    0.258E+00
DAV:   2    -0.651174042075E+02    0.16438E+00   -0.66182E-01   416   0.611E+00    0.142E+00
DAV:   3    -0.650470027058E+02    0.70402E-01   -0.28015E-01   416   0.281E+00    0.419E-01
DAV:   4    -0.650432541791E+02    0.37485E-02   -0.17806E-02   432   0.759E-01    0.221E-01
DAV:   5    -0.650421752869E+02    0.10789E-02   -0.52978E-03   432   0.386E-01    0.626E-02
DAV:   6    -0.650421215095E+02    0.53777E-04   -0.46084E-04   472   0.133E-01
  30 F= -.65042122E+02 E0= -.65028489E+02  d E =-.371055E-01
 curvature:  -3.16 expect dE=-0.407E+00 dE for cont linesearch -0.758E-08
 trial: gam= 0.36720 g(F)=  0.717E-01 g(S)=  0.570E-01 ort = 0.206E-03 (trialstep = 0.804E-01)
 search vector abs. value=  0.251E+01
 bond charge predicted
       N       E                     dE             d eps       ncg     rms          rms(c)
DAV:   1    -0.650686782558E+02   -0.26503E-01   -0.17590E+00   400   0.837E+00    0.686E-01
DAV:   2    -0.650535226836E+02    0.15156E-01   -0.55456E-02   440   0.141E+00    0.283E-01
DAV:   3    -0.650524475249E+02    0.10752E-02   -0.49732E-03   472   0.474E-01    0.133E-01
DAV:   4    -0.650522347350E+02    0.21279E-03   -0.81116E-04   440   0.222E-01    0.338E-02
DAV:   5    -0.650522782168E+02   -0.43482E-04   -0.10313E-04   416   0.681E-02
  31 F= -.65052278E+02 E0= -.65038568E+02  d E =-.101567E-01
 ZBRENT: can't locate minimum, use default step
 trial-energy change:   -0.010157  1 .order   -0.009425   -0.010358   -0.008492
 step:   0.3216(harm=  0.4464)  dis= 0.05233  next Energy=   -65.070877 (dE=-0.288E-01)
 bond charge predicted
       N       E                     dE             d eps       ncg     rms          rms(c)
DAV:   1    -0.652436724444E+02   -0.19144E+00   -0.15703E+01   384   0.248E+01    0.220E+00
DAV:   2    -0.650876537994E+02    0.15602E+00   -0.56373E-01   400   0.446E+00    0.859E-01
DAV:   3    -0.650765533261E+02    0.11100E-01   -0.35998E-02   448   0.143E+00    0.464E-01
DAV:   4    -0.650717508360E+02    0.48025E-02   -0.11430E-02   432   0.862E-01    0.109E-01
DAV:   5    -0.650717542315E+02   -0.33955E-05   -0.16094E-03   408   0.270E-01    0.545E-02
DAV:   6    -0.650719319257E+02   -0.17769E-03   -0.45168E-04   384   0.150E-01    0.193E-02
DAV:   7    -0.650720876491E+02   -0.15572E-03   -0.82069E-05   272   0.557E-02    0.110E-02
DAV:   8    -0.650722883767E+02   -0.20073E-03   -0.77453E-05   256   0.419E-02    0.630E-03
DAV:   9    -0.650724323365E+02   -0.14396E-03   -0.42445E-05   272   0.288E-02    0.424E-03
DAV:  10    -0.650725139392E+02   -0.81603E-04   -0.31656E-05   272   0.226E-02
  32 F= -.65072514E+02 E0= -.65058212E+02  d E =-.303924E-01
 curvature:  -3.85 expect dE=-0.269E+00 dE for cont linesearch -0.411E-02
 ZBRENT: increasing intervall
 opt :   0.8041  next Energy=   -65.071535 (dE=-0.294E-01)
 bond charge predicted
       N       E                     dE             d eps       ncg     rms          rms(c)
DAV:   1    -0.657678833034E+02   -0.69545E+00   -0.62741E+01   384   0.493E+01    0.438E+00
DAV:   2    -0.651398817799E+02    0.62800E+00   -0.22918E+00   416   0.970E+00    0.184E+00
DAV:   3    -0.650868698277E+02    0.53012E-01   -0.19581E-01   464   0.320E+00    0.926E-01
DAV:   4    -0.650720069905E+02    0.14863E-01   -0.38274E-02   440   0.152E+00    0.265E-01
DAV:   5    -0.650715799875E+02    0.42700E-03   -0.45980E-03   432   0.439E-01    0.991E-02
DAV:   6    -0.650718117051E+02   -0.23172E-03   -0.10942E-03   464   0.231E-01    0.364E-02
DAV:   7    -0.650721944113E+02   -0.38271E-03   -0.26354E-04   368   0.972E-02    0.192E-02
DAV:   8    -0.650725849271E+02   -0.39052E-03   -0.18311E-04   352   0.646E-02    0.117E-02
DAV:   9    -0.650729129326E+02   -0.32801E-03   -0.14699E-04   352   0.511E-02    0.856E-03
DAV:  10    -0.650730793488E+02   -0.16642E-03   -0.87311E-05   352   0.442E-02    0.518E-03
DAV:  11    -0.650731320967E+02   -0.52748E-04   -0.27325E-05   328   0.259E-02
  33 F= -.65073132E+02 E0= -.65058111E+02  d E =-.310106E-01
 curvature:   0.92 expect dE= 0.358E+00 dE for cont linesearch  0.118E-02
 trial: gam= 0.00000 g(F)=  0.385E+00 g(S)=  0.530E-02 ort =-0.569E-01 (trialstep = 0.225E+00)
 search vector abs. value=  0.390E+00
 bond charge predicted
       N       E                     dE             d eps       ncg     rms          rms(c)
DAV:   1    -0.651006984675E+02   -0.27619E-01   -0.28244E+00   384   0.104E+01    0.696E-01
DAV:   2    -0.650926657796E+02    0.80327E-02   -0.78736E-02   488   0.177E+00    0.371E-01
DAV:   3    -0.650885963532E+02    0.40694E-02   -0.16328E-02   440   0.770E-01    0.955E-02
DAV:   4    -0.650885906356E+02    0.57175E-05   -0.19949E-03   456   0.245E-01    0.485E-02
DAV:   5    -0.650885917821E+02   -0.11465E-05   -0.13056E-04   312   0.691E-02
  34 F= -.65088592E+02 E0= -.65078036E+02  d E =-.154597E-01
 trial-energy change:   -0.015460  1 .order   -0.014335   -0.087873    0.059203
 step:   0.1370(harm=  0.1345)  dis= 0.00945  next Energy=   -65.100116 (dE=-0.270E-01)
 bond charge predicted
       N       E                     dE             d eps       ncg     rms          rms(c)
DAV:   1    -0.651020350170E+02   -0.13444E-01   -0.43110E-01   384   0.409E+00    0.280E-01
DAV:   2    -0.651005998744E+02    0.14351E-02   -0.12295E-02   456   0.705E-01    0.142E-01
DAV:   3    -0.651001483186E+02    0.45156E-03   -0.20108E-03   448   0.264E-01    0.474E-02
DAV:   4    -0.651001458861E+02    0.24325E-05   -0.27979E-04   360   0.916E-02
  35 F= -.65100146E+02 E0= -.65087723E+02  d E =-.270138E-01
 curvature:  -0.07 expect dE=-0.519E-02 dE for cont linesearch -0.600E-07
 trial: gam= 0.19921 g(F)=  0.738E-01 g(S)=  0.337E-02 ort =-0.590E-03 (trialstep = 0.208E+00)
 search vector abs. value=  0.924E-01
 bond charge predicted
       N       E                     dE             d eps       ncg     rms          rms(c)
DAV:   1    -0.651117408986E+02   -0.11593E-01   -0.23768E-01   384   0.324E+00    0.167E-01
DAV:   2    -0.651116208320E+02    0.12007E-03   -0.67227E-03   480   0.562E-01    0.106E-01
DAV:   3    -0.651114231936E+02    0.19764E-03   -0.21919E-03   456   0.263E-01    0.454E-02
DAV:   4    -0.651113851563E+02    0.38037E-04   -0.33393E-04   432   0.107E-01
  36 F= -.65111385E+02 E0= -.65099600E+02  d E =-.112393E-01
 trial-energy change:   -0.011239  1 .order   -0.011205   -0.015988   -0.006422
 step:   0.3468(harm=  0.3468)  dis= 0.01278  next Energy=   -65.113506 (dE=-0.134E-01)
 bond charge predicted
       N       E                     dE             d eps       ncg     rms          rms(c)
DAV:   1    -0.651137021228E+02   -0.22789E-02   -0.10697E-01   384   0.217E+00    0.109E-01
DAV:   2    -0.651136889833E+02    0.13139E-04   -0.30800E-03   488   0.379E-01    0.707E-02
DAV:   3    -0.651135941291E+02    0.94854E-04   -0.89095E-04   472   0.170E-01
  37 F= -.65113594E+02 E0= -.65102186E+02  d E =-.134482E-01
 curvature:  -0.21 expect dE=-0.304E-02 dE for cont linesearch -0.216E-06
 trial: gam= 0.20342 g(F)=  0.109E-01 g(S)=  0.373E-02 ort =-0.310E-03 (trialstep = 0.235E+00)
 search vector abs. value=  0.183E-01
 bond charge predicted
       N       E                     dE             d eps       ncg     rms          rms(c)
DAV:   1    -0.651163421965E+02   -0.26532E-02   -0.76621E-02   416   0.202E+00    0.111E-01
DAV:   2    -0.651160079299E+02    0.33427E-03   -0.19015E-03   536   0.277E-01    0.579E-02
DAV:   3    -0.651159361914E+02    0.71738E-04   -0.41751E-04   440   0.125E-01
  38 F= -.65115936E+02 E0= -.65104828E+02  d E =-.234206E-02
 trial-energy change:   -0.002342  1 .order   -0.002369   -0.003425   -0.001313
 step:   0.3817(harm=  0.3817)  dis= 0.00432  next Energy=   -65.116371 (dE=-0.278E-02)
 bond charge predicted
       N       E                     dE             d eps       ncg     rms          rms(c)
DAV:   1    -0.651165564044E+02   -0.54847E-03   -0.30438E-02   432   0.126E+00    0.738E-02
DAV:   2    -0.651164259165E+02    0.13049E-03   -0.70135E-04   520   0.168E-01    0.405E-02
DAV:   3    -0.651163955443E+02    0.30372E-04   -0.15813E-04   304   0.814E-02
  39 F= -.65116396E+02 E0= -.65105415E+02  d E =-.280142E-02
 curvature:  -0.24 expect dE=-0.434E-02 dE for cont linesearch -0.190E-05
 trial: gam= 1.21676 g(F)=  0.161E-01 g(S)=  0.197E-02 ort = 0.381E-03 (trialstep = 0.105E+00)
 search vector abs. value=  0.461E-01
 bond charge predicted
       N       E                     dE             d eps       ncg     rms          rms(c)
DAV:   1    -0.651182579603E+02   -0.18320E-02   -0.42331E-02   448   0.146E+00    0.976E-02
DAV:   2    -0.651179662347E+02    0.29173E-03   -0.10166E-03   432   0.192E-01    0.473E-02
DAV:   3    -0.651179131427E+02    0.53092E-04   -0.18503E-04   352   0.814E-02
  40 F= -.65117913E+02 E0= -.65107178E+02  d E =-.151760E-02
 trial-energy change:   -0.001518  1 .order   -0.001514   -0.001949   -0.001079
 step:   0.2355(harm=  0.2355)  dis= 0.00379  next Energy=   -65.118579 (dE=-0.218E-02)
 bond charge predicted
       N       E                     dE             d eps       ncg     rms          rms(c)
DAV:   1    -0.651190834916E+02   -0.11173E-02   -0.64721E-02   448   0.180E+00    0.120E-01
DAV:   2    -0.651186330898E+02    0.45040E-03   -0.15339E-03   432   0.236E-01    0.594E-02
DAV:   3    -0.651185525541E+02    0.80536E-04   -0.29616E-04   424   0.999E-02
  41 F= -.65118553E+02 E0= -.65108121E+02  d E =-.215701E-02
 curvature:  -0.29 expect dE=-0.173E-02 dE for cont linesearch -0.101E-05
 trial: gam= 0.41345 g(F)=  0.435E-02 g(S)=  0.155E-02 ort =-0.398E-03 (trialstep = 0.131E+00)
 search vector abs. value=  0.135E-01
 bond charge predicted
       N       E                     dE             d eps       ncg     rms          rms(c)
DAV:   1    -0.651195229408E+02   -0.88985E-03   -0.17187E-02   448   0.906E-01    0.863E-02
DAV:   2    -0.651192528521E+02    0.27009E-03   -0.60404E-04   416   0.167E-01    0.423E-02
DAV:   3    -0.651192248182E+02    0.28034E-04   -0.34425E-04   408   0.101E-01
  42 F= -.65119225E+02 E0= -.65109094E+02  d E =-.672264E-03
 trial-energy change:   -0.000672  1 .order   -0.000624   -0.000753   -0.000496
 step:   0.3842(harm=  0.3842)  dis= 0.00301  next Energy=   -65.119655 (dE=-0.110E-02)
 bond charge predicted
       N       E                     dE             d eps       ncg     rms          rms(c)
DAV:   1    -0.651210035009E+02   -0.17506E-02   -0.64272E-02   448   0.176E+00    0.164E-01
DAV:   2    -0.651200605000E+02    0.94300E-03   -0.22220E-03   384   0.322E-01    0.804E-02
DAV:   3    -0.651199440055E+02    0.11649E-03   -0.12836E-03   440   0.193E-01    0.347E-02
DAV:   4    -0.651199264528E+02    0.17553E-04   -0.15809E-04   288   0.743E-02
  43 F= -.65119926E+02 E0= -.65110150E+02  d E =-.137390E-02
 curvature:  -0.45 expect dE=-0.104E-02 dE for cont linesearch -0.616E-04
 trial: gam= 0.11655 g(F)=  0.135E-02 g(S)=  0.959E-03 ort = 0.136E-02 (trialstep = 0.182E+00)
 search vector abs. value=  0.281E-02
 bond charge predicted
       N       E                     dE             d eps       ncg     rms          rms(c)
DAV:   1    -0.651203965817E+02   -0.45258E-03   -0.82814E-03   384   0.669E-01    0.442E-02
DAV:   2    -0.651203524098E+02    0.44172E-04   -0.17648E-04   336   0.970E-02
  44 F= -.65120352E+02 E0= -.65110600E+02  d E =-.425957E-03
 ZBRENT: can't locate minimum, use default step
 trial-energy change:   -0.000426  1 .order   -0.000435   -0.000449   -0.000420
 step:   0.7271(harm=  2.8415)  dis= 0.00305  next Energy=   -65.123435 (dE=-0.351E-02)
 bond charge predicted
       N       E                     dE             d eps       ncg     rms          rms(c)
DAV:   1    -0.651214960961E+02   -0.10995E-02   -0.72547E-02   384   0.200E+00    0.133E-01
DAV:   2    -0.651211018041E+02    0.39429E-03   -0.16554E-03   464   0.286E-01    0.705E-02
DAV:   3    -0.651209742718E+02    0.12753E-03   -0.59003E-04   448   0.151E-01    0.207E-02
DAV:   4    -0.651209744548E+02   -0.18299E-06   -0.55217E-05   256   0.492E-02
  45 F= -.65120974E+02 E0= -.65111792E+02  d E =-.104800E-02
 curvature:  -0.60 expect dE=-0.211E-02 dE for cont linesearch -0.177E-04
 trial: gam= 1.47835 g(F)=  0.325E-02 g(S)=  0.285E-03 ort = 0.289E-03 (trialstep = 0.776E-01)
 search vector abs. value=  0.105E-01
 bond charge predicted
       N       E                     dE             d eps       ncg     rms          rms(c)
DAV:   1    -0.651213022044E+02   -0.32793E-03   -0.61386E-03   392   0.564E-01    0.390E-02
DAV:   2    -0.651212590159E+02    0.43188E-04   -0.13189E-04   272   0.819E-02
  46 F= -.65121259E+02 E0= -.65111885E+02  d E =-.284561E-03
 ZBRENT: can't locate minimum, use default step
 trial-energy change:   -0.000285  1 .order   -0.000285   -0.000308   -0.000262
 step:   0.3103(harm=  0.5192)  dis= 0.00267  next Energy=   -65.122004 (dE=-0.103E-02)
 bond charge predicted
       N       E                     dE             d eps       ncg     rms          rms(c)
DAV:   1    -0.651218379681E+02   -0.53576E-03   -0.53184E-02   384   0.167E+00    0.115E-01
DAV:   2    -0.651214695961E+02    0.36837E-03   -0.12397E-03   440   0.236E-01    0.589E-02
DAV:   3    -0.651213764362E+02    0.93160E-04   -0.31775E-04   440   0.108E-01
  47 F= -.65121376E+02 E0= -.65112236E+02  d E =-.401981E-03
 curvature:  -0.54 expect dE=-0.291E-02 dE for cont linesearch -0.174E-03
 trial: gam= 0.00000 g(F)=  0.519E-02 g(S)=  0.245E-03 ort =-0.185E-02 (trialstep = 0.124E+00)
 search vector abs. value=  0.544E-02
 reached required accuracy - stopping structural energy minimisation
 writing wavefunctions
Sun Mar  6 20:22:23 CST 2022
