Sun Mar  6 19:35:58 CST 2022
 running on   48 total cores
 distrk:  each k-point on   48 cores,    1 groups
 distr:  one band on   24 cores,    2 groups
 using from now: INCAR     
 vasp.5.3.5 31Mar14 (build Jan 11 2016 19:50:55) complex                        
  
 POSCAR found type information on POSCAR  B  C  Na
 POSCAR found :  3 types and       9 ions
 scaLAPACK will be used

 ----------------------------------------------------------------------------- 
|                                                                             |
|           W    W    AA    RRRRR   N    N  II  N    N   GGGG   !!!           |
|           W    W   A  A   R    R  NN   N  II  NN   N  G    G  !!!           |
|           W    W  A    A  R    R  N N  N  II  N N  N  G       !!!           |
|           W WW W  AAAAAA  RRRRR   N  N N  II  N  N N  G  GGG   !            |
|           WW  WW  A    A  R   R   N   NN  II  N   NN  G    G                |
|           W    W  A    A  R    R  N    N  II  N    N   GGGG   !!!           |
|                                                                             |
|      For optimal performance we recommend to set                            |
|        NCORE= 4 - approx SQRT( number of cores)                             |
|      NCORE specifies how many cores store one orbital (NPAR=cpu/NCORE).     |
|      This setting can  greatly improve the performance of VASP for DFT.     |
|      The default, NPAR=number of cores might be grossly inefficient         |
|      on modern multi-core architectures or massively parallel machines.     |
|      Do your own testing !!!!                                               |
|      Unfortunately you need to use the default for GW and RPA calculations. |
|      (for HF NCORE is supported but not extensively tested yet)             |
|                                                                             |
 ----------------------------------------------------------------------------- 

 LDA part: xc-table for Pade appr. of Perdew
 POSCAR, INCAR and KPOINTS ok, starting setup
 WARNING: small aliasing (wrap around) errors must be expected
 FFT: planning ...
 WAVECAR not read
 entering main loop
       N       E                     dE             d eps       ncg     rms          rms(c)
DAV:   1     0.273981275262E+03    0.27398E+03   -0.12256E+04   464   0.871E+02
DAV:   2    -0.203996828002E+02   -0.29438E+03   -0.28893E+03   632   0.234E+02
DAV:   3    -0.715047424770E+02   -0.51105E+02   -0.50710E+02   432   0.105E+02
DAV:   4    -0.738210354096E+02   -0.23163E+01   -0.22981E+01   544   0.298E+01
DAV:   5    -0.738784252099E+02   -0.57390E-01   -0.57255E-01   472   0.421E+00    0.135E+01
DAV:   6    -0.670631601769E+02    0.68153E+01   -0.76626E+00   512   0.166E+01    0.746E+00
DAV:   7    -0.644086719800E+02    0.26545E+01   -0.82375E+00   488   0.148E+01    0.246E+00
DAV:   8    -0.642246088352E+02    0.18406E+00   -0.46910E-01   480   0.405E+00    0.109E+00
DAV:   9    -0.640960276761E+02    0.12858E+00   -0.14509E-01   528   0.189E+00    0.497E-01
DAV:  10    -0.640926356515E+02    0.33920E-02   -0.24269E-02   464   0.796E-01    0.302E-01
DAV:  11    -0.640856210370E+02    0.70146E-02   -0.16085E-02   480   0.441E-01    0.217E-01
DAV:  12    -0.640866488692E+02   -0.10278E-02   -0.68616E-03   488   0.362E-01    0.119E-01
DAV:  13    -0.640873176590E+02   -0.66879E-03   -0.53499E-03   448   0.211E-01    0.979E-02
DAV:  14    -0.640906148732E+02   -0.32972E-02   -0.36955E-03   488   0.237E-01    0.607E-02
DAV:  15    -0.640932969668E+02   -0.26821E-02   -0.17386E-03   376   0.114E-01    0.267E-02
DAV:  16    -0.640950122979E+02   -0.17153E-02   -0.74458E-04   376   0.858E-02    0.165E-02
DAV:  17    -0.640958503967E+02   -0.83810E-03   -0.18485E-04   288   0.455E-02    0.160E-02
DAV:  18    -0.640962159483E+02   -0.36555E-03   -0.94716E-05   288   0.314E-02    0.538E-03
DAV:  19    -0.640963601350E+02   -0.14419E-03   -0.41213E-05   304   0.241E-02    0.699E-03
DAV:  20    -0.640964005807E+02   -0.40446E-04   -0.80074E-06   328   0.118E-02
   1 F= -.64096401E+02 E0= -.64036425E+02  d E =-.640964E+02
 curvature:   0.00 expect dE= 0.000E+00 dE for cont linesearch  0.000E+00
 trial: gam= 0.00000 g(F)=  0.711E+00 g(S)=  0.966E-01 ort = 0.000E+00 (trialstep = 0.100E+01)
 search vector abs. value=  0.807E+00
 bond charge predicted
       N       E                     dE             d eps       ncg     rms          rms(c)
DAV:   1    -0.641587641787E+02   -0.62404E-01   -0.11679E+02   448   0.817E+01    0.376E+00
DAV:   2    -0.639250790247E+02    0.23369E+00   -0.26032E+00   464   0.119E+01    0.204E+00
DAV:   3    -0.638403006917E+02    0.84778E-01   -0.54961E-01   496   0.453E+00    0.109E+00
DAV:   4    -0.638327384885E+02    0.75622E-02   -0.17907E-01   448   0.194E+00    0.797E-01
DAV:   5    -0.638149158809E+02    0.17823E-01   -0.23021E-02   464   0.878E-01    0.327E-01
DAV:   6    -0.638127962131E+02    0.21197E-02   -0.98904E-03   528   0.531E-01    0.104E-01
DAV:   7    -0.638127999687E+02   -0.37557E-05   -0.17660E-03   464   0.230E-01    0.492E-02
DAV:   8    -0.638128168964E+02   -0.16928E-04   -0.17476E-04   368   0.768E-02
   2 F= -.63812817E+02 E0= -.63775681E+02  d E =0.283584E+00
 trial-energy change:    0.283584  1 .order    0.413691   -0.807129    1.634510
 step:   0.4078(harm=  0.3306)  dis= 0.03891  next Energy=   -64.269788 (dE=-0.173E+00)
 bond charge predicted
       N       E                     dE             d eps       ncg     rms          rms(c)
DAV:   1    -0.644949546304E+02   -0.68215E+00   -0.38548E+01   384   0.420E+01    0.286E+00
DAV:   2    -0.644446280160E+02    0.50327E-01   -0.52292E+00   512   0.863E+00    0.149E+00
DAV:   3    -0.643243655844E+02    0.12026E+00   -0.15730E-01   488   0.281E+00    0.909E-01
DAV:   4    -0.643225210497E+02    0.18445E-02   -0.32355E-01   464   0.243E+00    0.110E+00
DAV:   5    -0.642889749914E+02    0.33546E-01   -0.17435E-01   432   0.143E+00    0.325E-01
DAV:   6    -0.642866041089E+02    0.23709E-02   -0.51329E-03   464   0.416E-01    0.209E-01
DAV:   7    -0.642852549128E+02    0.13492E-02   -0.11544E-03   488   0.176E-01    0.107E-01
DAV:   8    -0.642848269199E+02    0.42799E-03   -0.63927E-04   400   0.107E-01    0.203E-02
DAV:   9    -0.642848710367E+02   -0.44117E-04   -0.77889E-05   336   0.498E-02
   3 F= -.64284871E+02 E0= -.64244579E+02  d E =-.188470E+00
 curvature:  -0.16 expect dE=-0.174E+00 dE for cont linesearch -0.432E-04
 trial: gam= 1.30488 g(F)=  0.992E+00 g(S)=  0.759E-01 ort = 0.146E-01 (trialstep = 0.287E+00)
 search vector abs. value=  0.248E+01
 bond charge predicted
       N       E                     dE             d eps       ncg     rms          rms(c)
DAV:   1    -0.643846431980E+02   -0.99816E-01   -0.24883E+01   384   0.363E+01    0.144E+00
DAV:   2    -0.643960627210E+02   -0.11420E-01   -0.76836E-01   448   0.584E+00    0.854E-01
DAV:   3    -0.643857178516E+02    0.10345E-01   -0.70356E-02   560   0.177E+00    0.510E-01
DAV:   4    -0.643836403445E+02    0.20775E-02   -0.21053E-02   480   0.966E-01    0.223E-01
DAV:   5    -0.643827678116E+02    0.87253E-03   -0.58685E-03   448   0.448E-01    0.133E-01
DAV:   6    -0.643825589672E+02    0.20884E-03   -0.15257E-03   464   0.206E-01    0.350E-02
DAV:   7    -0.643825495337E+02    0.94335E-05   -0.11728E-04   296   0.687E-02
   4 F= -.64382550E+02 E0= -.64343533E+02  d E =-.976785E-01
 trial-energy change:   -0.097678  1 .order   -0.101850   -0.311805    0.108104
 step:   0.2097(harm=  0.2130)  dis= 0.03747  next Energy=   -64.397180 (dE=-0.112E+00)
 bond charge predicted
       N       E                     dE             d eps       ncg     rms          rms(c)
DAV:   1    -0.643992338633E+02   -0.16675E-01   -0.17345E+00   384   0.900E+00    0.442E-01
DAV:   2    -0.644005549088E+02   -0.13210E-02   -0.58406E-02   432   0.156E+00    0.306E-01
DAV:   3    -0.643977645491E+02    0.27904E-02   -0.71397E-03   496   0.483E-01    0.165E-01
DAV:   4    -0.643974911260E+02    0.27342E-03   -0.21794E-03   528   0.367E-01    0.495E-02
DAV:   5    -0.643974496099E+02    0.41516E-04   -0.49553E-04   440   0.140E-01
   5 F= -.64397450E+02 E0= -.64358422E+02  d E =-.112579E+00
 curvature:  -0.24 expect dE=-0.303E-01 dE for cont linesearch -0.555E-07
 trial: gam= 0.08045 g(F)=  0.101E+00 g(S)=  0.239E-01 ort =-0.753E-03 (trialstep = 0.271E+00)
 search vector abs. value=  0.141E+00
 bond charge predicted
       N       E                     dE             d eps       ncg     rms          rms(c)
DAV:   1    -0.644238924961E+02   -0.26401E-01   -0.13093E+00   384   0.767E+00    0.356E-01
DAV:   2    -0.644234971171E+02    0.39538E-03   -0.34992E-02   440   0.122E+00    0.185E-01
DAV:   3    -0.644229249690E+02    0.57215E-03   -0.27157E-03   440   0.370E-01    0.105E-01
DAV:   4    -0.644226779056E+02    0.24706E-03   -0.99953E-04   456   0.198E-01    0.479E-02
DAV:   5    -0.644226446110E+02    0.33295E-04   -0.23972E-04   384   0.893E-02
   6 F= -.64422645E+02 E0= -.64381961E+02  d E =-.251950E-01
 trial-energy change:   -0.025195  1 .order   -0.025133   -0.033863   -0.016404
 step:   0.5264(harm=  0.5264)  dis= 0.02148  next Energy=   -64.430289 (dE=-0.328E-01)
 bond charge predicted
       N       E                     dE             d eps       ncg     rms          rms(c)
DAV:   1    -0.644318942937E+02   -0.92164E-02   -0.11616E+00   384   0.723E+00    0.343E-01
DAV:   2    -0.644314374768E+02    0.45682E-03   -0.31267E-02   432   0.115E+00    0.181E-01
DAV:   3    -0.644308732480E+02    0.56423E-03   -0.27759E-03   440   0.356E-01    0.109E-01
DAV:   4    -0.644305715823E+02    0.30167E-03   -0.10053E-03   480   0.200E-01    0.446E-02
DAV:   5    -0.644305559968E+02    0.15585E-04   -0.22149E-04   376   0.872E-02
   7 F= -.64430556E+02 E0= -.64387696E+02  d E =-.331064E-01
 curvature:  -0.30 expect dE=-0.407E-01 dE for cont linesearch -0.506E-05
 trial: gam= 1.09912 g(F)=  0.133E+00 g(S)=  0.422E-02 ort = 0.155E-02 (trialstep = 0.146E+00)
 search vector abs. value=  0.310E+00
 bond charge predicted
       N       E                     dE             d eps       ncg     rms          rms(c)
DAV:   1    -0.644437216975E+02   -0.13150E-01   -0.84792E-01   384   0.601E+00    0.258E-01
DAV:   2    -0.644441759909E+02   -0.45429E-03   -0.18398E-02   480   0.938E-01    0.157E-01
DAV:   3    -0.644437683002E+02    0.40769E-03   -0.32211E-03   512   0.408E-01    0.525E-02
DAV:   4    -0.644437581968E+02    0.10103E-04   -0.57147E-04   456   0.153E-01
   8 F= -.64443758E+02 E0= -.64400891E+02  d E =-.132022E-01
 trial-energy change:   -0.013202  1 .order   -0.012931   -0.020271   -0.005590
 step:   0.2019(harm=  0.2019)  dis= 0.01306  next Energy=   -64.444551 (dE=-0.140E-01)
 bond charge predicted
       N       E                     dE             d eps       ncg     rms          rms(c)
DAV:   1    -0.644448829508E+02   -0.11147E-02   -0.12362E-01   384   0.230E+00    0.981E-02
DAV:   2    -0.644449929979E+02   -0.11005E-03   -0.27914E-03   496   0.362E-01    0.601E-02
DAV:   3    -0.644449358415E+02    0.57156E-04   -0.37808E-04   464   0.144E-01
   9 F= -.64444936E+02 E0= -.64402261E+02  d E =-.143798E-01
 curvature:  -0.23 expect dE=-0.171E-01 dE for cont linesearch -0.140E-08
 trial: gam= 0.56982 g(F)=  0.603E-01 g(S)=  0.155E-01 ort =-0.438E-04 (trialstep = 0.157E+00)
 search vector abs. value=  0.177E+00
 bond charge predicted
       N       E                     dE             d eps       ncg     rms          rms(c)
DAV:   1    -0.644559349950E+02   -0.10942E-01   -0.54795E-01   384   0.452E+00    0.194E-01
DAV:   2    -0.644563863568E+02   -0.45136E-03   -0.13471E-02   416   0.696E-01    0.123E-01
DAV:   3    -0.644558875981E+02    0.49876E-03   -0.14616E-03   416   0.222E-01    0.660E-02
DAV:   4    -0.644558599975E+02    0.27601E-04   -0.37117E-04   464   0.127E-01
  10 F= -.64455860E+02 E0= -.64412479E+02  d E =-.109242E-01
 ZBRENT: can't locate minimum, use default step
 trial-energy change:   -0.010924  1 .order   -0.010715   -0.011929   -0.009502
 step:   0.6294(harm=  0.7733)  dis= 0.03236  next Energy=   -64.474247 (dE=-0.293E-01)
 bond charge predicted
       N       E                     dE             d eps       ncg     rms          rms(c)
DAV:   1    -0.644746987416E+02   -0.18811E-01   -0.49446E+00   384   0.137E+01    0.621E-01
DAV:   2    -0.644822785215E+02   -0.75798E-02   -0.13608E-01   432   0.218E+00    0.436E-01
DAV:   3    -0.644742043102E+02    0.80742E-02   -0.15395E-02   432   0.735E-01    0.195E-01
DAV:   4    -0.644740477462E+02    0.15656E-03   -0.41042E-03   496   0.407E-01    0.828E-02
DAV:   5    -0.644739508454E+02    0.96901E-04   -0.87523E-04   512   0.175E-01
  11 F= -.64473951E+02 E0= -.64429199E+02  d E =-.290150E-01
 curvature:  -0.85 expect dE=-0.241E-01 dE for cont linesearch -0.974E-03
 trial: gam= 0.24718 g(F)=  0.218E-01 g(S)=  0.649E-02 ort = 0.142E-01 (trialstep = 0.252E+00)
 search vector abs. value=  0.461E-01
 bond charge predicted
       N       E                     dE             d eps       ncg     rms          rms(c)
DAV:   1    -0.644811312913E+02   -0.70835E-02   -0.35345E-01   384   0.392E+00    0.225E-01
DAV:   2    -0.644806697715E+02    0.46152E-03   -0.14178E-02   416   0.666E-01    0.173E-01
DAV:   3    -0.644796538798E+02    0.10159E-02   -0.22300E-03   432   0.242E-01    0.825E-02
DAV:   4    -0.644795572081E+02    0.96672E-04   -0.47630E-04   456   0.127E-01
  12 F= -.64479557E+02 E0= -.64434397E+02  d E =-.560636E-02
 trial-energy change:   -0.005606  1 .order   -0.005630   -0.008001   -0.003258
 step:   0.4247(harm=  0.4247)  dis= 0.00728  next Energy=   -64.480700 (dE=-0.675E-02)
 bond charge predicted
       N       E                     dE             d eps       ncg     rms          rms(c)
DAV:   1    -0.644813453281E+02   -0.16914E-02   -0.16432E-01   384   0.267E+00    0.156E-01
DAV:   2    -0.644811237691E+02    0.22156E-03   -0.67265E-03   416   0.447E-01    0.121E-01
DAV:   3    -0.644806206966E+02    0.50307E-03   -0.11110E-03   400   0.164E-01    0.571E-02
DAV:   4    -0.644805731654E+02    0.47531E-04   -0.20908E-04   336   0.883E-02
  13 F= -.64480573E+02 E0= -.64434780E+02  d E =-.662232E-02
 curvature:  -0.31 expect dE=-0.183E-01 dE for cont linesearch -0.197E-06
 trial: gam= 2.25365 g(F)=  0.500E-01 g(S)=  0.940E-02 ort =-0.172E-03 (trialstep = 0.451E-01)
 search vector abs. value=  0.293E+00
 bond charge predicted
       N       E                     dE             d eps       ncg     rms          rms(c)
DAV:   1    -0.644832410361E+02   -0.26203E-02   -0.65319E-02   384   0.163E+00    0.849E-02
DAV:   2    -0.644832017216E+02    0.39315E-04   -0.20534E-03   400   0.251E-01    0.670E-02
DAV:   3    -0.644830625562E+02    0.13917E-03   -0.29384E-04   272   0.861E-02    0.332E-02
DAV:   4    -0.644830454735E+02    0.17083E-04   -0.86646E-05   320   0.638E-02
  14 F= -.64483045E+02 E0= -.64437162E+02  d E =-.247231E-02
 ZBRENT: can't locate minimum, use default step
 trial-energy change:   -0.002472  1 .order   -0.002475   -0.002662   -0.002288
 step:   0.1803(harm=  0.3214)  dis= 0.00749  next Energy=   -64.490062 (dE=-0.949E-02)
 bond charge predicted
       N       E                     dE             d eps       ncg     rms          rms(c)
DAV:   1    -0.644900632094E+02   -0.70007E-02   -0.59077E-01   384   0.491E+00    0.254E-01
DAV:   2    -0.644899862316E+02    0.76978E-04   -0.19731E-02   400   0.762E-01    0.199E-01
DAV:   3    -0.644885801268E+02    0.14061E-02   -0.27468E-03   416   0.261E-01    0.965E-02
DAV:   4    -0.644883852818E+02    0.19484E-03   -0.63292E-04   456   0.173E-01    0.270E-02
DAV:   5    -0.644883837125E+02    0.15694E-05   -0.75159E-05   360   0.577E-02
  15 F= -.64488384E+02 E0= -.64442573E+02  d E =-.781055E-02
 curvature:  -0.59 expect dE=-0.232E-01 dE for cont linesearch -0.159E-02
 ZBRENT: increasing intervall
 opt :   0.4508  next Energy=   -64.489842 (dE=-0.927E-02)
 bond charge predicted
       N       E                     dE             d eps       ncg     rms          rms(c)
DAV:   1    -0.644969461080E+02   -0.85608E-02   -0.23702E+00   384   0.981E+00    0.519E-01
DAV:   2    -0.644969151252E+02    0.30983E-04   -0.88508E-02   416   0.156E+00    0.394E-01
DAV:   3    -0.644906995728E+02    0.62156E-02   -0.10805E-02   416   0.523E-01    0.189E-01
DAV:   4    -0.644899568783E+02    0.74269E-03   -0.27364E-03   432   0.359E-01    0.494E-02
DAV:   5    -0.644899413540E+02    0.15524E-04   -0.39030E-04   448   0.124E-01
  16 F= -.64489941E+02 E0= -.64444496E+02  d E =-.936819E-02
 curvature:  -0.54 expect dE=-0.491E-01 dE for cont linesearch -0.524E-03
 trial: gam= 0.00000 g(F)=  0.806E-01 g(S)=  0.101E-01 ort =-0.168E-01 (trialstep = 0.126E+00)
 search vector abs. value=  0.907E-01
 bond charge predicted
       N       E                     dE             d eps       ncg     rms          rms(c)
DAV:   1    -0.644997047861E+02   -0.97479E-02   -0.14072E-01   384   0.253E+00    0.166E-01
DAV:   2    -0.644994824256E+02    0.22236E-03   -0.56380E-03   448   0.463E-01    0.103E-01
DAV:   3    -0.644991799668E+02    0.30246E-03   -0.95333E-04   416   0.156E-01    0.543E-02
DAV:   4    -0.644991528192E+02    0.27148E-04   -0.29773E-04   384   0.101E-01
  17 F= -.64499153E+02 E0= -.64454213E+02  d E =-.921147E-02
 trial-energy change:   -0.009211  1 .order   -0.009089   -0.011450   -0.006728
 step:   0.3061(harm=  0.3061)  dis= 0.00953  next Energy=   -64.503823 (dE=-0.139E-01)
 bond charge predicted
       N       E                     dE             d eps       ncg     rms          rms(c)
DAV:   1    -0.645053783022E+02   -0.61983E-02   -0.28821E-01   384   0.361E+00    0.247E-01
DAV:   2    -0.645049721746E+02    0.40613E-03   -0.11659E-02   464   0.675E-01    0.153E-01
DAV:   3    -0.645042788666E+02    0.69331E-03   -0.19863E-03   432   0.233E-01    0.806E-02
DAV:   4    -0.645041870826E+02    0.91784E-04   -0.66930E-04   432   0.150E-01
  18 F= -.64504187E+02 E0= -.64459846E+02  d E =-.142457E-01
 curvature:  -0.15 expect dE=-0.296E-02 dE for cont linesearch -0.811E-07
 trial: gam= 0.21107 g(F)=  0.125E-01 g(S)=  0.689E-02 ort = 0.219E-03 (trialstep = 0.162E+00)
 search vector abs. value=  0.235E-01
 bond charge predicted
       N       E                     dE             d eps       ncg     rms          rms(c)
DAV:   1    -0.645070953542E+02   -0.28165E-02   -0.61468E-02   384   0.179E+00    0.151E-01
DAV:   2    -0.645068832596E+02    0.21209E-03   -0.35730E-03   432   0.367E-01    0.104E-01
DAV:   3    -0.645065332880E+02    0.34997E-03   -0.88730E-04   400   0.148E-01    0.505E-02
DAV:   4    -0.645064837457E+02    0.49542E-04   -0.19938E-04   336   0.103E-01
  19 F= -.64506484E+02 E0= -.64462121E+02  d E =-.229666E-02
 trial-energy change:   -0.002297  1 .order   -0.002258   -0.003148   -0.001369
 step:   0.2869(harm=  0.2869)  dis= 0.00335  next Energy=   -64.506972 (dE=-0.278E-02)
 bond charge predicted
       N       E                     dE             d eps       ncg     rms          rms(c)
DAV:   1    -0.645073858242E+02   -0.85254E-03   -0.36528E-02   416   0.138E+00    0.114E-01
DAV:   2    -0.645072698096E+02    0.11601E-03   -0.19370E-03   432   0.267E-01    0.791E-02
DAV:   3    -0.645070692370E+02    0.20057E-03   -0.47101E-04   304   0.109E-01    0.387E-02
DAV:   4    -0.645070446558E+02    0.24581E-04   -0.14349E-04   336   0.845E-02
  20 F= -.64507045E+02 E0= -.64462846E+02  d E =-.285757E-02
 curvature:  -0.17 expect dE=-0.526E-02 dE for cont linesearch -0.415E-06
 trial: gam= 1.58702 g(F)=  0.234E-01 g(S)=  0.690E-02 ort =-0.237E-03 (trialstep = 0.496E-01)
 search vector abs. value=  0.887E-01
 bond charge predicted
       N       E                     dE             d eps       ncg     rms          rms(c)
DAV:   1    -0.645089163719E+02   -0.18471E-02   -0.20550E-02   384   0.959E-01    0.102E-01
DAV:   2    -0.645088063986E+02    0.10997E-03   -0.20011E-03   400   0.201E-01    0.808E-02
DAV:   3    -0.645085339259E+02    0.27247E-03   -0.43772E-04   272   0.949E-02    0.290E-02
DAV:   4    -0.645085182650E+02    0.15661E-04   -0.57634E-05   304   0.535E-02
  21 F= -.64508518E+02 E0= -.64464323E+02  d E =-.147361E-02
 ZBRENT: can't locate minimum, use default step
 trial-energy change:   -0.001474  1 .order   -0.001459   -0.001483   -0.001435
 step:   0.1983(harm=  1.5328)  dis= 0.00413  next Energy=   -64.529974 (dE=-0.229E-01)
 bond charge predicted
       N       E                     dE             d eps       ncg     rms          rms(c)
DAV:   1    -0.645159208224E+02   -0.73869E-02   -0.18279E-01   384   0.285E+00    0.308E-01
DAV:   2    -0.645152643238E+02    0.65650E-03   -0.18655E-02   400   0.612E-01    0.242E-01
DAV:   3    -0.645125197601E+02    0.27446E-02   -0.37735E-03   384   0.289E-01    0.834E-02
DAV:   4    -0.645123457749E+02    0.17399E-03   -0.50344E-04   432   0.166E-01    0.237E-02
DAV:   5    -0.645123354867E+02    0.10288E-04   -0.50785E-05   368   0.439E-02
  22 F= -.64512335E+02 E0= -.64468254E+02  d E =-.529083E-02
 curvature:  -0.43 expect dE=-0.100E-01 dE for cont linesearch -0.254E-02
 ZBRENT: increasing intervall
 opt :   0.4956  next Energy=   -64.517301 (dE=-0.103E-01)
 bond charge predicted
       N       E                     dE             d eps       ncg     rms          rms(c)
DAV:   1    -0.645323203460E+02   -0.19975E-01   -0.73485E-01   384   0.569E+00    0.638E-01
DAV:   2    -0.645306769912E+02    0.16434E-02   -0.80862E-02   416   0.126E+00    0.471E-01
DAV:   3    -0.645184236104E+02    0.12253E-01   -0.13172E-02   392   0.591E-01    0.170E-01
DAV:   4    -0.645179385429E+02    0.48507E-03   -0.39909E-03   464   0.417E-01    0.103E-01
DAV:   5    -0.645176558230E+02    0.28272E-03   -0.18453E-03   400   0.217E-01    0.559E-02
DAV:   6    -0.645175792540E+02    0.76569E-04   -0.15791E-04   304   0.719E-02
  23 F= -.64517579E+02 E0= -.64473420E+02  d E =-.105346E-01
 curvature:  -0.85 expect dE=-0.254E-01 dE for cont linesearch -0.126E-02
 ZBRENT: increasing intervall
 opt :   1.0904  next Energy=   -64.517703 (dE=-0.107E-01)
 bond charge predicted
       N       E                     dE             d eps       ncg     rms          rms(c)
DAV:   1    -0.645798627402E+02   -0.62207E-01   -0.29645E+00   384   0.114E+01    0.134E+00
DAV:   2    -0.645759074636E+02    0.39553E-02   -0.72110E-01   440   0.266E+00    0.851E-01
DAV:   3    -0.645253651180E+02    0.50542E-01   -0.39611E-02   400   0.119E+00    0.409E-01
DAV:   4    -0.645286470421E+02   -0.32819E-02   -0.55301E-02   448   0.121E+00    0.556E-01
DAV:   5    -0.645201474478E+02    0.84996E-02   -0.10287E-02   408   0.488E-01    0.200E-01
DAV:   6    -0.645187294363E+02    0.14180E-02   -0.32226E-03   448   0.278E-01    0.368E-02
DAV:   7    -0.645189156117E+02   -0.18618E-03   -0.43757E-04   392   0.132E-01    0.379E-02
DAV:   8    -0.645189881483E+02   -0.72537E-04   -0.35398E-05   352   0.393E-02
  24 F= -.64518988E+02 E0= -.64473246E+02  d E =-.119435E-01
 curvature:  -0.08 expect dE=-0.811E-02 dE for cont linesearch -0.718E-04
 trial: gam= 0.00000 g(F)=  0.838E-01 g(S)=  0.142E-01 ort =-0.877E-02 (trialstep = 0.233E+00)
 search vector abs. value=  0.980E-01
 bond charge predicted
       N       E                     dE             d eps       ncg     rms          rms(c)
DAV:   1    -0.645365498602E+02   -0.17634E-01   -0.61090E-01   384   0.534E+00    0.296E-01
DAV:   2    -0.645355983425E+02    0.95152E-03   -0.16819E-02   472   0.866E-01    0.160E-01
DAV:   3    -0.645352357003E+02    0.36264E-03   -0.28501E-03   416   0.283E-01    0.107E-01
DAV:   4    -0.645349710230E+02    0.26468E-03   -0.63093E-04   408   0.148E-01    0.387E-02
DAV:   5    -0.645349840621E+02   -0.13039E-04   -0.14878E-04   320   0.764E-02
  25 F= -.64534984E+02 E0= -.64491722E+02  d E =-.159959E-01
 trial-energy change:   -0.015996  1 .order   -0.015755   -0.022867   -0.008643
 step:   0.3753(harm=  0.3753)  dis= 0.01234  next Energy=   -64.537370 (dE=-0.184E-01)
 bond charge predicted
       N       E                     dE             d eps       ncg     rms          rms(c)
DAV:   1    -0.645380814878E+02   -0.31105E-02   -0.22567E-01   384   0.324E+00    0.182E-01
DAV:   2    -0.645376724099E+02    0.40908E-03   -0.62675E-03   456   0.528E-01    0.976E-02
DAV:   3    -0.645375605545E+02    0.11186E-03   -0.11036E-03   408   0.174E-01    0.644E-02
DAV:   4    -0.645374665869E+02    0.93968E-04   -0.22454E-04   304   0.869E-02
  26 F= -.64537467E+02 E0= -.64494826E+02  d E =-.184784E-01
 curvature:  -0.19 expect dE=-0.428E-02 dE for cont linesearch -0.104E-04
 trial: gam= 0.25676 g(F)=  0.157E-01 g(S)=  0.713E-02 ort =-0.233E-02 (trialstep = 0.262E+00)
 search vector abs. value=  0.281E-01
 bond charge predicted
       N       E                     dE             d eps       ncg     rms          rms(c)
DAV:   1    -0.645421642864E+02   -0.46037E-02   -0.20356E-01   384   0.309E+00    0.221E-01
DAV:   2    -0.645414903166E+02    0.67397E-03   -0.92689E-03   416   0.553E-01    0.152E-01
DAV:   3    -0.645407971728E+02    0.69314E-03   -0.15528E-03   400   0.210E-01    0.816E-02
DAV:   4    -0.645406672363E+02    0.12994E-03   -0.63053E-04   464   0.140E-01    0.303E-02
DAV:   5    -0.645406547383E+02    0.12498E-04   -0.51234E-05   352   0.473E-02
  27 F= -.64540655E+02 E0= -.64498178E+02  d E =-.318815E-02
 trial-energy change:   -0.003188  1 .order   -0.003258   -0.005820   -0.000697
 step:   0.2974(harm=  0.2974)  dis= 0.00300  next Energy=   -64.540772 (dE=-0.331E-02)
 bond charge predicted
       N       E                     dE             d eps       ncg     rms          rms(c)
DAV:   1    -0.645407493309E+02   -0.82095E-04   -0.38720E-03   384   0.426E-01    0.302E-02
DAV:   2    -0.645407401009E+02    0.92300E-05   -0.16673E-04   272   0.809E-02
  28 F= -.64540740E+02 E0= -.64498658E+02  d E =-.327351E-02
 curvature:  -0.19 expect dE=-0.506E-02 dE for cont linesearch -0.328E-06
 trial: gam= 1.14713 g(F)=  0.219E-01 g(S)=  0.505E-02 ort = 0.222E-03 (trialstep = 0.117E+00)
 search vector abs. value=  0.644E-01
 bond charge predicted
       N       E                     dE             d eps       ncg     rms          rms(c)
DAV:   1    -0.645440950069E+02   -0.33457E-02   -0.94720E-02   384   0.199E+00    0.129E-01
DAV:   2    -0.645439073146E+02    0.18769E-03   -0.34330E-03   400   0.324E-01    0.913E-02
DAV:   3    -0.645436435683E+02    0.26375E-03   -0.51846E-04   272   0.117E-01    0.498E-02
DAV:   4    -0.645435722545E+02    0.71314E-04   -0.19726E-04   304   0.917E-02
  29 F= -.64543572E+02 E0= -.64501358E+02  d E =-.283215E-02
 ZBRENT: can't locate minimum, use default step
 trial-energy change:   -0.002832  1 .order   -0.002841   -0.003187   -0.002495
 step:   0.4693(harm=  0.5399)  dis= 0.00905  next Energy=   -64.548073 (dE=-0.733E-02)
 bond charge predicted
       N       E                     dE             d eps       ncg     rms          rms(c)
DAV:   1    -0.645516970394E+02   -0.80535E-02   -0.84901E-01   384   0.595E+00    0.370E-01
DAV:   2    -0.645505496978E+02    0.11473E-02   -0.30253E-02   400   0.970E-01    0.261E-01
DAV:   3    -0.645482356484E+02    0.23140E-02   -0.42842E-03   432   0.349E-01    0.139E-01
DAV:   4    -0.645476774868E+02    0.55816E-03   -0.13308E-03   448   0.237E-01    0.327E-02
DAV:   5    -0.645476779282E+02   -0.44139E-06   -0.10744E-04   368   0.718E-02
  30 F= -.64547678E+02 E0= -.64506254E+02  d E =-.693783E-02
 curvature:  -0.62 expect dE=-0.220E-01 dE for cont linesearch -0.736E-04
 trial: gam= 1.37829 g(F)=  0.270E-01 g(S)=  0.842E-02 ort = 0.276E-02 (trialstep = 0.731E-01)
 search vector abs. value=  0.165E+00
 bond charge predicted
       N       E                     dE             d eps       ncg     rms          rms(c)
DAV:   1    -0.645513237968E+02   -0.36463E-02   -0.91463E-02   384   0.180E+00    0.146E-01
DAV:   2    -0.645510056049E+02    0.31819E-03   -0.44438E-03   400   0.324E-01    0.105E-01
DAV:   3    -0.645505782724E+02    0.42733E-03   -0.74127E-04   320   0.137E-01    0.475E-02
DAV:   4    -0.645505266386E+02    0.51634E-04   -0.13778E-04   336   0.831E-02
  31 F= -.64550527E+02 E0= -.64509191E+02  d E =-.284871E-02
 ZBRENT: can't locate minimum, use default step
 trial-energy change:   -0.002849  1 .order   -0.002817   -0.002865   -0.002769
 step:   0.2925(harm=  2.1641)  dis= 0.01011  next Energy=   -64.590084 (dE=-0.424E-01)
 bond charge predicted
       N       E                     dE             d eps       ncg     rms          rms(c)
DAV:   1    -0.645657116623E+02   -0.15133E-01   -0.82494E-01   384   0.538E+00    0.450E-01
DAV:   2    -0.645632340850E+02    0.24776E-02   -0.42594E-02   416   0.995E-01    0.316E-01
DAV:   3    -0.645588923282E+02    0.43418E-02   -0.62286E-03   392   0.420E-01    0.143E-01
DAV:   4    -0.645583371312E+02    0.55520E-03   -0.15817E-03   464   0.293E-01    0.398E-02
DAV:   5    -0.645583210179E+02    0.16113E-04   -0.16940E-04   320   0.859E-02
  32 F= -.64558321E+02 E0= -.64517605E+02  d E =-.106431E-01
 curvature:  -0.91 expect dE=-0.233E-01 dE for cont linesearch -0.615E-02
 ZBRENT: increasing intervall
 opt :   0.7312  next Energy=   -64.571090 (dE=-0.234E-01)
 bond charge predicted
       N       E                     dE             d eps       ncg     rms          rms(c)
DAV:   1    -0.646025315931E+02   -0.44194E-01   -0.33158E+00   384   0.107E+01    0.935E-01
DAV:   2    -0.645931593571E+02    0.93722E-02   -0.21562E-01   432   0.207E+00    0.604E-01
DAV:   3    -0.645743159104E+02    0.18843E-01   -0.24515E-02   408   0.850E-01    0.296E-01
DAV:   4    -0.645731534521E+02    0.11625E-02   -0.14008E-02   464   0.765E-01    0.207E-01
DAV:   5    -0.645715408628E+02    0.16126E-02   -0.45717E-03   400   0.352E-01    0.508E-02
DAV:   6    -0.645716132182E+02   -0.72355E-04   -0.34321E-04   400   0.118E-01
  33 F= -.64571613E+02 E0= -.64531878E+02  d E =-.239353E-01
 curvature:  -1.88 expect dE=-0.614E-01 dE for cont linesearch -0.748E-02
 ZBRENT: increasing intervall
 opt :   1.6085  next Energy=   -64.587207 (dE=-0.395E-01)
 bond charge predicted
       N       E                     dE             d eps       ncg     rms          rms(c)
DAV:   1    -0.647161037875E+02   -0.14456E+00   -0.13429E+01   384   0.216E+01    0.194E+00
DAV:   2    -0.646720671217E+02    0.44037E-01   -0.15023E+00   480   0.444E+00    0.107E+00
DAV:   3    -0.646071710517E+02    0.64896E-01   -0.59185E-02   448   0.169E+00    0.647E-01
DAV:   4    -0.646130530035E+02   -0.58820E-02   -0.15113E-01   464   0.187E+00    0.816E-01
DAV:   5    -0.645904835955E+02    0.22569E-01   -0.34187E-02   400   0.820E-01    0.202E-01
DAV:   6    -0.645893332028E+02    0.11504E-02   -0.62360E-03   480   0.413E-01    0.799E-02
DAV:   7    -0.645897062057E+02   -0.37300E-03   -0.71264E-04   440   0.178E-01    0.474E-02
DAV:   8    -0.645899790794E+02   -0.27287E-03   -0.80033E-05   320   0.499E-02    0.447E-02
DAV:   9    -0.645901435681E+02   -0.16449E-03   -0.27076E-04   392   0.827E-02    0.886E-03
DAV:  10    -0.645904245538E+02   -0.28099E-03   -0.10975E-04   304   0.468E-02    0.914E-03
DAV:  11    -0.645905137604E+02   -0.89207E-04   -0.31077E-05   352   0.256E-02
  34 F= -.64590514E+02 E0= -.64550570E+02  d E =-.428358E-01
 curvature:  -3.92 expect dE=-0.461E+00 dE for cont linesearch -0.592E-02
 ZBRENT: increasing intervall
 opt :   3.3633  next Energy=   -64.600982 (dE=-0.533E-01)
 bond charge predicted
       N       E                     dE             d eps       ncg     rms          rms(c)
DAV:   1    -0.651106231786E+02   -0.52020E+00   -0.55699E+01   384   0.448E+01    0.392E+00
DAV:   2    -0.648109800977E+02    0.29964E+00   -0.67492E+00   464   0.965E+00    0.188E+00
DAV:   3    -0.646663724515E+02    0.14461E+00   -0.20016E-01   464   0.337E+00    0.120E+00
DAV:   4    -0.646184991035E+02    0.47873E-01   -0.35565E-01   496   0.299E+00    0.809E-01
DAV:   5    -0.645948405646E+02    0.23659E-01   -0.19843E-01   440   0.148E+00    0.290E-01
DAV:   6    -0.645924198807E+02    0.24207E-02   -0.68404E-03   480   0.527E-01    0.171E-01
DAV:   7    -0.645920924871E+02    0.32739E-03   -0.36591E-03   496   0.303E-01    0.988E-02
DAV:   8    -0.645924718667E+02   -0.37938E-03   -0.96489E-04   480   0.155E-01    0.454E-02
DAV:   9    -0.645926893944E+02   -0.21753E-03   -0.49117E-04   416   0.106E-01    0.324E-02
DAV:  10    -0.645929993844E+02   -0.30999E-03   -0.17481E-04   360   0.690E-02    0.206E-02
DAV:  11    -0.645933030494E+02   -0.30367E-03   -0.24652E-04   400   0.690E-02    0.115E-02
DAV:  12    -0.645934234435E+02   -0.12039E-03   -0.56634E-05   320   0.335E-02    0.553E-03
DAV:  13    -0.645934755034E+02   -0.52060E-04   -0.21307E-05   312   0.191E-02
  35 F= -.64593476E+02 E0= -.64551336E+02  d E =-.457976E-01
 curvature:  -6.93 expect dE=-0.333E+01 dE for cont linesearch -0.583E-02
 ZBRENT: bracketing found
 ZBRENT: interpolating
 opt :   2.6132  next Energy=   -64.597898 (dE=-0.502E-01)
 bond charge predicted
       N       E                     dE             d eps       ncg     rms          rms(c)
DAV:   1    -0.646759977403E+02   -0.82574E-01   -0.10209E+01   400   0.199E+01    0.138E+00
DAV:   2    -0.646118649937E+02    0.64133E-01   -0.32124E-01   432   0.323E+00    0.709E-01
DAV:   3    -0.646016821557E+02    0.10183E-01   -0.20123E-02   448   0.900E-01    0.375E-01
DAV:   4    -0.645975212210E+02    0.41609E-02   -0.12287E-02   464   0.715E-01    0.103E-01
DAV:   5    -0.645973334613E+02    0.18776E-03   -0.16550E-03   416   0.226E-01    0.512E-02
DAV:   6    -0.645972028934E+02    0.13057E-03   -0.24402E-04   376   0.852E-02    0.206E-02
DAV:   7    -0.645972284696E+02   -0.25576E-04   -0.48684E-05   360   0.432E-02
  36 F= -.64597228E+02 E0= -.64556559E+02  d E =-.495505E-01
 curvature:  -5.26 expect dE=-0.158E+01 dE for cont linesearch -0.247E-03
 trial: gam= 9.05103 g(F)=  0.269E+00 g(S)=  0.319E-01 ort =-0.279E-02 (trialstep = 0.697E-02)
 search vector abs. value=  0.138E+02
 bond charge predicted
       N       E                     dE             d eps       ncg     rms          rms(c)
DAV:   1    -0.645997953530E+02   -0.25925E-02   -0.70762E-02   448   0.156E+00    0.121E-01
DAV:   2    -0.645995704953E+02    0.22486E-03   -0.30060E-03   416   0.266E-01    0.706E-02
DAV:   3    -0.645994344438E+02    0.13605E-03   -0.21009E-04   288   0.942E-02    0.391E-02
DAV:   4    -0.645994790928E+02   -0.44649E-04   -0.11567E-04   304   0.769E-02
  37 F= -.64599479E+02 E0= -.64558936E+02  d E =-.225062E-02
 ZBRENT: can't locate minimum, use default step
 trial-energy change:   -0.002251  1 .order   -0.001901   -0.001918   -0.001885
 step:   0.0279(harm=  0.4067)  dis= 0.00898  next Energy=   -64.653221 (dE=-0.560E-01)
 bond charge predicted
       N       E                     dE             d eps       ncg     rms          rms(c)
DAV:   1    -0.646104421716E+02   -0.11008E-01   -0.63703E-01   416   0.465E+00    0.371E-01
DAV:   2    -0.646075546320E+02    0.28875E-02   -0.36044E-02   432   0.828E-01    0.217E-01
DAV:   3    -0.646058662838E+02    0.16883E-02   -0.20971E-03   432   0.297E-01    0.119E-01
DAV:   4    -0.646054409222E+02    0.42536E-03   -0.12985E-03   480   0.273E-01    0.260E-02
DAV:   5    -0.646054368758E+02    0.40465E-05   -0.12453E-04   336   0.912E-02
  38 F= -.64605437E+02 E0= -.64565467E+02  d E =-.820841E-02
 curvature:  -1.04 expect dE=-0.310E+00 dE for cont linesearch -0.542E-02
 ZBRENT: increasing intervall
 opt :   0.0697  next Energy=   -64.616577 (dE=-0.193E-01)
 bond charge predicted
       N       E                     dE             d eps       ncg     rms          rms(c)
DAV:   1    -0.646380864822E+02   -0.32646E-01   -0.25435E+00   384   0.926E+00    0.765E-01
DAV:   2    -0.646261454062E+02    0.11941E-01   -0.16123E-01   440   0.171E+00    0.440E-01
DAV:   3    -0.646183454665E+02    0.77999E-02   -0.83657E-03   440   0.619E-01    0.242E-01
DAV:   4    -0.646167399912E+02    0.16055E-02   -0.65058E-03   496   0.601E-01    0.850E-02
DAV:   5    -0.646165070612E+02    0.23293E-03   -0.99009E-04   416   0.207E-01    0.358E-02
DAV:   6    -0.646165827084E+02   -0.75647E-04   -0.17357E-04   344   0.101E-01
  39 F= -.64616583E+02 E0= -.64577547E+02  d E =-.193542E-01
 curvature:  -2.13 expect dE=-0.642E+00 dE for cont linesearch -0.105E-01
 ZBRENT: increasing intervall
 opt :   0.1532  next Energy=   -64.637622 (dE=-0.404E-01)
 bond charge predicted
       N       E                     dE             d eps       ncg     rms          rms(c)
DAV:   1    -0.647288943676E+02   -0.11239E+00   -0.10235E+01   416   0.185E+01    0.162E+00
DAV:   2    -0.646816395429E+02    0.47255E-01   -0.80921E-01   448   0.368E+00    0.867E-01
DAV:   3    -0.646476140427E+02    0.34026E-01   -0.34118E-02   448   0.134E+00    0.514E-01
DAV:   4    -0.646432695237E+02    0.43445E-02   -0.59680E-02   496   0.144E+00    0.353E-01
DAV:   5    -0.646375621695E+02    0.57074E-02   -0.16302E-02   448   0.602E-01    0.905E-02
DAV:   6    -0.646376934048E+02   -0.13124E-03   -0.15264E-03   504   0.255E-01    0.482E-02
DAV:   7    -0.646379831000E+02   -0.28970E-03   -0.21394E-04   352   0.103E-01    0.288E-02
DAV:   8    -0.646381811063E+02   -0.19801E-03   -0.74629E-05   328   0.507E-02    0.175E-02
DAV:   9    -0.646384010091E+02   -0.21990E-03   -0.14550E-04   336   0.616E-02    0.725E-03
DAV:  10    -0.646385588420E+02   -0.15783E-03   -0.52576E-05   320   0.329E-02    0.668E-03
DAV:  11    -0.646386146316E+02   -0.55790E-04   -0.17834E-05   336   0.209E-02
  40 F= -.64638615E+02 E0= -.64600946E+02  d E =-.413862E-01
 curvature:  -4.29 expect dE=-0.141E+01 dE for cont linesearch -0.195E-01
 ZBRENT: increasing intervall
 opt :   0.3204  next Energy=   -64.678908 (dE=-0.817E-01)
 bond charge predicted
       N       E                     dE             d eps       ncg     rms          rms(c)
DAV:   1    -0.650636274166E+02   -0.42507E+00   -0.42091E+01   432   0.380E+01    0.349E+00
DAV:   2    -0.648373214999E+02    0.22631E+00   -0.45579E+00   472   0.858E+00    0.165E+00
DAV:   3    -0.647335834948E+02    0.10374E+00   -0.16814E-01   480   0.309E+00    0.104E+00
DAV:   4    -0.646846670293E+02    0.48916E-01   -0.18859E-01   504   0.268E+00    0.468E-01
DAV:   5    -0.646765720733E+02    0.80950E-02   -0.53311E-02   448   0.110E+00    0.169E-01
DAV:   6    -0.646766760786E+02   -0.10401E-03   -0.42879E-03   528   0.433E-01    0.102E-01
DAV:   7    -0.646768915682E+02   -0.21549E-03   -0.11545E-03   488   0.195E-01    0.505E-02
DAV:   8    -0.646774492497E+02   -0.55768E-03   -0.37940E-04   416   0.927E-02    0.203E-02
DAV:   9    -0.646778191432E+02   -0.36989E-03   -0.14709E-04   336   0.675E-02    0.198E-02
DAV:  10    -0.646780851827E+02   -0.26604E-03   -0.21526E-04   416   0.588E-02    0.104E-02
DAV:  11    -0.646782283991E+02   -0.14322E-03   -0.81298E-05   320   0.416E-02    0.142E-02
DAV:  12    -0.646782511945E+02   -0.22795E-04   -0.35582E-05   344   0.278E-02
  41 F= -.64678251E+02 E0= -.64644169E+02  d E =-.810227E-01
 curvature:  -8.85 expect dE=-0.397E+01 dE for cont linesearch -0.256E-01
 ZBRENT: increasing intervall
 opt :   0.6547  next Energy=   -64.728008 (dE=-0.131E+00)
 bond charge predicted
       N       E                     dE             d eps       ncg     rms          rms(c)
DAV:   1    -0.661774654434E+02   -0.14992E+01   -0.18709E+02   448   0.874E+01    0.668E+00
DAV:   2    -0.650616725976E+02    0.11158E+01   -0.12221E+01   472   0.185E+01    0.317E+00
DAV:   3    -0.648243536515E+02    0.23732E+00   -0.66587E-01   464   0.610E+00    0.175E+00
DAV:   4    -0.647410229237E+02    0.83331E-01   -0.28897E-01   496   0.369E+00    0.564E-01
DAV:   5    -0.647350079425E+02    0.60150E-02   -0.50134E-02   464   0.142E+00    0.236E-01
DAV:   6    -0.647352585610E+02   -0.25062E-03   -0.74565E-03   464   0.514E-01    0.116E-01
DAV:   7    -0.647366910410E+02   -0.14325E-02   -0.17392E-03   448   0.248E-01    0.525E-02
DAV:   8    -0.647378969544E+02   -0.12059E-02   -0.10192E-03   416   0.146E-01    0.297E-02
DAV:   9    -0.647384146481E+02   -0.51769E-03   -0.40134E-04   408   0.104E-01    0.210E-02
DAV:  10    -0.647389625074E+02   -0.54786E-03   -0.54370E-04   376   0.907E-02    0.121E-02
DAV:  11    -0.647390553541E+02   -0.92847E-04   -0.92737E-05   368   0.468E-02
  42 F= -.64739055E+02 E0= -.64712626E+02  d E =-.141827E+00
 curvature: -17.21 expect dE=-0.162E+02 dE for cont linesearch -0.136E-01
 ZBRENT: increasing intervall
 opt :   1.3234  next Energy=   -64.745353 (dE=-0.148E+00)
 bond charge predicted
       N       E                     dE             d eps       ncg     rms          rms(c)
DAV:   1    -0.688362560033E+02   -0.40973E+01   -0.11571E+03   392   0.280E+02    0.151E+01
DAV:   2    -0.656138646170E+02    0.32224E+01   -0.75466E+01   440   0.436E+01    0.700E+00
DAV:   3    -0.648726313289E+02    0.74123E+00   -0.41020E+00   496   0.144E+01    0.376E+00
DAV:   4    -0.647285111798E+02    0.14412E+00   -0.11776E+00   568   0.851E+00    0.135E+00
DAV:   5    -0.647043240193E+02    0.24187E-01   -0.16123E-01   472   0.281E+00    0.549E-01
DAV:   6    -0.647006048160E+02    0.37192E-02   -0.34871E-02   456   0.112E+00    0.170E-01
DAV:   7    -0.647005858339E+02    0.18982E-04   -0.39152E-03   552   0.459E-01    0.107E-01
DAV:   8    -0.647020900643E+02   -0.15042E-02   -0.31977E-03   448   0.341E-01    0.541E-02
DAV:   9    -0.647035579744E+02   -0.14679E-02   -0.12100E-03   488   0.190E-01    0.355E-02
DAV:  10    -0.647050121331E+02   -0.14542E-02   -0.81542E-04   416   0.136E-01    0.231E-02
DAV:  11    -0.647058688348E+02   -0.85670E-03   -0.23105E-04   416   0.869E-02    0.128E-02
DAV:  12    -0.647061712096E+02   -0.30237E-03   -0.35995E-05   336   0.438E-02    0.760E-03
DAV:  13    -0.647064904837E+02   -0.31927E-03   -0.40316E-05   336   0.393E-02    0.489E-03
DAV:  14    -0.647065516957E+02   -0.61212E-04   -0.74242E-06   360   0.221E-02
  43 F= -.64706552E+02 E0= -.64686957E+02  d E =-.109323E+00
 curvature:  -7.94 expect dE=-0.208E+02 dE for cont linesearch -0.112E+00
 ZBRENT: bracketing found
 ZBRENT: interpolating
 opt :   0.7828  next Energy=   -64.745750 (dE=-0.149E+00)
 bond charge predicted
       N       E                     dE             d eps       ncg     rms          rms(c)
DAV:   1    -0.676479079958E+02   -0.29414E+01   -0.77986E+02   424   0.239E+02    0.102E+01
DAV:   2    -0.662727091559E+02    0.13752E+01   -0.22406E+01   400   0.318E+01    0.557E+00
DAV:   3    -0.648379945735E+02    0.14347E+01   -0.47554E+00   480   0.130E+01    0.135E+00
DAV:   4    -0.647866581155E+02    0.51336E-01   -0.16679E-01   528   0.280E+00    0.824E-01
DAV:   5    -0.647437688580E+02    0.42889E-01   -0.75119E-02   512   0.158E+00    0.255E-01
DAV:   6    -0.647367482985E+02    0.70206E-02   -0.93600E-03   480   0.591E-01    0.135E-01
DAV:   7    -0.647343990361E+02    0.23493E-02   -0.27963E-03   512   0.268E-01    0.980E-02
DAV:   8    -0.647365125857E+02   -0.21135E-02   -0.25045E-03   480   0.256E-01    0.430E-02
DAV:   9    -0.647381656779E+02   -0.16531E-02   -0.87670E-04   432   0.130E-01    0.342E-02
DAV:  10    -0.647397428110E+02   -0.15771E-02   -0.47424E-04   368   0.942E-02    0.155E-02
DAV:  11    -0.647399716400E+02   -0.22883E-03   -0.67485E-05   368   0.404E-02    0.104E-02
DAV:  12    -0.647403112253E+02   -0.33959E-03   -0.81406E-05   296   0.331E-02    0.569E-03
DAV:  13    -0.647404819906E+02   -0.17077E-03   -0.27586E-05   352   0.229E-02    0.442E-03
DAV:  14    -0.647406187829E+02   -0.13679E-03   -0.21081E-05   352   0.172E-02    0.256E-03
DAV:  15    -0.647407316308E+02   -0.11285E-03   -0.12502E-05   328   0.127E-02    0.227E-03
DAV:  16    -0.647407935954E+02   -0.61965E-04   -0.86542E-06   360   0.878E-03
  44 F= -.64740794E+02 E0= -.64716197E+02  d E =-.143565E+00
 curvature:  -0.47 expect dE=-0.592E+00 dE for cont linesearch -0.845E-04
 trial: gam= 3.04529 g(F)=  0.117E+01 g(S)=  0.785E-01 ort = 0.496E-01 (trialstep = 0.173E-01)
 search vector abs. value=  0.129E+03
 bond charge predicted
       N       E                     dE             d eps       ncg     rms          rms(c)
DAV:   1    -0.647948965089E+02   -0.54165E-01   -0.41625E+00   392   0.119E+01    0.882E-01
DAV:   2    -0.647700245557E+02    0.24872E-01   -0.11624E-01   432   0.203E+00    0.445E-01
DAV:   3    -0.647655346244E+02    0.44899E-02   -0.91122E-03   488   0.661E-01    0.210E-01
DAV:   4    -0.647642688545E+02    0.12658E-02   -0.24787E-03   496   0.370E-01    0.449E-02
DAV:   5    -0.647643203499E+02   -0.51495E-04   -0.19252E-04   352   0.108E-01
  45 F= -.64764320E+02 E0= -.64741031E+02  d E =-.235268E-01
 ZBRENT: can't locate minimum, use default step
 trial-energy change:   -0.023527  1 .order   -0.023770   -0.024209   -0.023331
 step:   0.0691(harm=  0.4765)  dis= 0.06817  next Energy=   -65.074710 (dE=-0.334E+00)
 bond charge predicted
       N       E                     dE             d eps       ncg     rms          rms(c)
DAV:   1    -0.651347336217E+02   -0.37046E+00   -0.38253E+01   416   0.364E+01    0.298E+00
DAV:   2    -0.648838871934E+02    0.25085E+00   -0.19731E+00   488   0.713E+00    0.136E+00
DAV:   3    -0.648444713425E+02    0.39416E-01   -0.99788E-02   496   0.244E+00    0.740E-01
DAV:   4    -0.648302029340E+02    0.14268E-01   -0.41075E-02   496   0.146E+00    0.205E-01
DAV:   5    -0.648297415192E+02    0.46141E-03   -0.48614E-03   432   0.486E-01    0.898E-02
DAV:   6    -0.648301207219E+02   -0.37920E-03   -0.14417E-03   480   0.206E-01    0.389E-02
DAV:   7    -0.648305551152E+02   -0.43439E-03   -0.21693E-04   408   0.936E-02    0.229E-02
DAV:   8    -0.648311456195E+02   -0.59050E-03   -0.38141E-04   400   0.899E-02    0.132E-02
DAV:   9    -0.648314497831E+02   -0.30416E-03   -0.10463E-04   400   0.521E-02    0.729E-03
DAV:  10    -0.648316211709E+02   -0.17139E-03   -0.75577E-05   312   0.376E-02    0.508E-03
DAV:  11    -0.648317016993E+02   -0.80528E-04   -0.31006E-05   360   0.272E-02
  46 F= -.64831702E+02 E0= -.64811978E+02  d E =-.909081E-01
 curvature:  -4.69 expect dE=-0.543E+01 dE for cont linesearch -0.498E-01
 ZBRENT: increasing intervall
 opt :   0.1727  next Energy=   -64.934849 (dE=-0.194E+00)
 bond charge predicted
       N       E                     dE             d eps       ncg     rms          rms(c)
DAV:   1    -0.660492488789E+02   -0.12176E+01   -0.16737E+02   400   0.824E+01    0.629E+00
DAV:   2    -0.651580509301E+02    0.89120E+00   -0.91976E+00   480   0.163E+01    0.290E+00
DAV:   3    -0.649670617651E+02    0.19099E+00   -0.61661E-01   496   0.564E+00    0.148E+00
DAV:   4    -0.649254968269E+02    0.41565E-01   -0.18277E-01   528   0.284E+00    0.549E-01
DAV:   5    -0.649212666294E+02    0.42302E-02   -0.25254E-02   480   0.105E+00    0.201E-01
DAV:   6    -0.649211995408E+02    0.67089E-04   -0.58186E-03   472   0.464E-01    0.695E-02
DAV:   7    -0.649219102909E+02   -0.71075E-03   -0.96566E-04   536   0.198E-01    0.411E-02
DAV:   8    -0.649229391399E+02   -0.10288E-02   -0.77556E-04   384   0.142E-01    0.219E-02
DAV:   9    -0.649233963223E+02   -0.45718E-03   -0.26160E-04   400   0.769E-02    0.140E-02
DAV:  10    -0.649236491563E+02   -0.25283E-03   -0.16990E-04   320   0.546E-02    0.795E-03
DAV:  11    -0.649237289628E+02   -0.79806E-04   -0.37047E-05   336   0.297E-02
  47 F= -.64923729E+02 E0= -.64905303E+02  d E =-.182935E+00
 curvature:  -9.70 expect dE=-0.111E+02 dE for cont linesearch -0.117E-01
 ZBRENT: increasing intervall
 opt :   0.3800  next Energy=   -64.844065 (dE=-0.103E+00)
 bond charge predicted
       N       E                     dE             d eps       ncg     rms          rms(c)
DAV:   1    -0.677589904094E+02   -0.28353E+01   -0.99656E+02   384   0.251E+02    0.134E+01
DAV:   2    -0.655933798943E+02    0.21656E+01   -0.48624E+01   408   0.399E+01    0.664E+00
DAV:   3    -0.648156558127E+02    0.77772E+00   -0.35416E+00   528   0.132E+01    0.316E+00
DAV:   4    -0.646947560181E+02    0.12090E+00   -0.70256E-01   560   0.611E+00    0.126E+00
DAV:   5    -0.646774091513E+02    0.17347E-01   -0.69168E-02   448   0.190E+00    0.435E-01
DAV:   6    -0.646747270007E+02    0.26822E-02   -0.16828E-02   472   0.851E-01    0.132E-01
DAV:   7    -0.646743676774E+02    0.35932E-03   -0.28468E-03   496   0.362E-01    0.832E-02
DAV:   8    -0.646744443706E+02   -0.76693E-04   -0.19137E-03   440   0.245E-01    0.488E-02
DAV:   9    -0.646743376699E+02    0.10670E-03   -0.10669E-03   400   0.158E-01    0.347E-02
DAV:  10    -0.646739894742E+02    0.34820E-03   -0.50958E-04   384   0.961E-02    0.197E-02
DAV:  11    -0.646737689020E+02    0.22057E-03   -0.90031E-05   344   0.564E-02    0.113E-02
DAV:  12    -0.646737325848E+02    0.36317E-04   -0.22942E-05   376   0.281E-02
  48 F= -.64673733E+02 E0= -.64654992E+02  d E =0.670610E-01
 curvature:  66.33 expect dE= 0.133E+03 dE for cont linesearch  0.714E+01
 ZBRENT: bracketing found
 ZBRENT: interpolating
 opt :   0.1925  next Energy=   -64.927634 (dE=-0.187E+00)
 bond charge predicted
       N       E                     dE             d eps       ncg     rms          rms(c)
DAV:   1    -0.679265735561E+02   -0.32528E+01   -0.92316E+02   464   0.268E+02    0.106E+01
DAV:   2    -0.666240653023E+02    0.13025E+01   -0.26127E+01   400   0.335E+01    0.581E+00
DAV:   3    -0.650401892057E+02    0.15839E+01   -0.52015E+00   464   0.136E+01    0.137E+00
DAV:   4    -0.649808290165E+02    0.59360E-01   -0.19613E-01   480   0.300E+00    0.844E-01
DAV:   5    -0.649308966331E+02    0.49932E-01   -0.82640E-02   496   0.164E+00    0.270E-01
DAV:   6    -0.649209539126E+02    0.99427E-02   -0.10841E-02   528   0.625E-01    0.152E-01
DAV:   7    -0.649157461981E+02    0.52077E-02   -0.46590E-03   480   0.327E-01    0.111E-01
DAV:   8    -0.649161400631E+02   -0.39386E-03   -0.37562E-03   464   0.290E-01    0.502E-02
DAV:   9    -0.649166471967E+02   -0.50713E-03   -0.70798E-04   336   0.136E-01    0.377E-02
DAV:  10    -0.649170787923E+02   -0.43160E-03   -0.70027E-04   344   0.110E-01    0.182E-02
DAV:  11    -0.649181873115E+02   -0.11085E-02   -0.12589E-04   352   0.594E-02    0.115E-02
DAV:  12    -0.649194256227E+02   -0.12383E-02   -0.20450E-04   360   0.492E-02    0.870E-03
DAV:  13    -0.649200544551E+02   -0.62883E-03   -0.95849E-05   352   0.349E-02    0.418E-03
DAV:  14    -0.649202733152E+02   -0.21886E-03   -0.30778E-05   336   0.189E-02    0.265E-03
DAV:  15    -0.649204198293E+02   -0.14651E-03   -0.25615E-05   304   0.148E-02    0.125E-03
DAV:  16    -0.649204434980E+02   -0.23669E-04   -0.42132E-06   376   0.836E-03
  49 F= -.64920443E+02 E0= -.64901958E+02  d E =-.179650E+00
 curvature:  -0.04 expect dE=-0.440E-01 dE for cont linesearch -0.165E-04
 trial: gam= 0.09499 g(F)=  0.107E+01 g(S)=  0.140E+00 ort = 0.243E+00 (trialstep = 0.523E-01)
 search vector abs. value=  0.243E+01
 bond charge predicted
       N       E                     dE             d eps       ncg     rms          rms(c)
DAV:   1    -0.649842871672E+02   -0.63867E-01   -0.69178E-01   384   0.571E+00    0.325E-01
DAV:   2    -0.649826287323E+02    0.16584E-02   -0.17438E-02   408   0.863E-01    0.183E-01
DAV:   3    -0.649813639394E+02    0.12648E-02   -0.44009E-03   456   0.400E-01    0.390E-02
DAV:   4    -0.649813605155E+02    0.34239E-05   -0.23840E-04   432   0.105E-01
  50 F= -.64981361E+02 E0= -.64964085E+02  d E =-.609170E-01
 ZBRENT: can't locate minimum, use default step
 trial-energy change:   -0.060917  1 .order   -0.061039   -0.064640   -0.057438
 step:   0.2093(harm=  0.4697)  dis= 0.02301  next Energy=   -65.210552 (dE=-0.290E+00)
 bond charge predicted
       N       E                     dE             d eps       ncg     rms          rms(c)
DAV:   1    -0.651473699655E+02   -0.16601E+00   -0.62192E+00   384   0.170E+01    0.993E-01
DAV:   2    -0.651310623026E+02    0.16308E-01   -0.15956E-01   480   0.260E+00    0.553E-01
DAV:   3    -0.651203589305E+02    0.10703E-01   -0.38668E-02   472   0.119E+00    0.124E-01
DAV:   4    -0.651203614559E+02   -0.25254E-05   -0.21372E-03   480   0.308E-01    0.723E-02
DAV:   5    -0.651205306878E+02   -0.16923E-03   -0.37209E-04   408   0.112E-01    0.228E-02
DAV:   6    -0.651207433764E+02   -0.21269E-03   -0.62393E-05   328   0.547E-02    0.113E-02
DAV:   7    -0.651209711247E+02   -0.22775E-03   -0.75801E-05   304   0.439E-02    0.820E-03
DAV:   8    -0.651211233799E+02   -0.15226E-03   -0.48635E-05   304   0.337E-02    0.383E-03
DAV:   9    -0.651212220877E+02   -0.98708E-04   -0.50616E-05   296   0.269E-02
  51 F= -.65121222E+02 E0= -.65107233E+02  d E =-.200779E+00
 curvature:  -0.28 expect dE=-0.114E+00 dE for cont linesearch -0.532E-01
 ZBRENT: increasing intervall
 opt :   0.5232  next Energy=   -65.201758 (dE=-0.281E+00)
 bond charge predicted
       N       E                     dE             d eps       ncg     rms          rms(c)
DAV:   1    -0.653094357361E+02   -0.18831E+00   -0.24937E+01   400   0.337E+01    0.210E+00
DAV:   2    -0.652333315891E+02    0.76104E-01   -0.69789E-01   440   0.546E+00    0.112E+00
DAV:   3    -0.651945523603E+02    0.38779E-01   -0.12291E-01   472   0.220E+00    0.339E-01
DAV:   4    -0.651924622330E+02    0.20901E-02   -0.94810E-03   512   0.636E-01    0.154E-01
DAV:   5    -0.651925158435E+02   -0.53611E-04   -0.14769E-03   440   0.236E-01    0.543E-02
DAV:   6    -0.651928555983E+02   -0.33975E-03   -0.23967E-04   376   0.971E-02    0.214E-02
DAV:   7    -0.651932411870E+02   -0.38559E-03   -0.15842E-04   352   0.652E-02    0.133E-02
DAV:   8    -0.651936206773E+02   -0.37949E-03   -0.19120E-04   360   0.576E-02    0.860E-03
DAV:   9    -0.651937418165E+02   -0.12114E-03   -0.66021E-05   312   0.330E-02    0.509E-03
DAV:  10    -0.651937735687E+02   -0.31752E-04   -0.36351E-05   296   0.226E-02
  52 F= -.65193774E+02 E0= -.65183240E+02  d E =-.273330E+00
 curvature:  -0.43 expect dE=-0.162E+00 dE for cont linesearch -0.988E-02
 ZBRENT: bracketing found
 ZBRENT: interpolating
 opt :   0.4418  next Energy=   -65.203434 (dE=-0.283E+00)
 bond charge predicted
       N       E                     dE             d eps       ncg     rms          rms(c)
DAV:   1    -0.652099914546E+02   -0.16250E-01   -0.17187E+00   384   0.919E+00    0.521E-01
DAV:   2    -0.652056906020E+02    0.43009E-02   -0.45440E-02   496   0.141E+00    0.292E-01
DAV:   3    -0.652026466088E+02    0.30440E-02   -0.10825E-02   504   0.618E-01    0.622E-02
DAV:   4    -0.652025674765E+02    0.79132E-04   -0.58970E-04   496   0.162E-01
  53 F= -.65202567E+02 E0= -.65191666E+02  d E =-.282124E+00
 curvature:  -0.42 expect dE=-0.917E-01 dE for cont linesearch -0.262E-04
 trial: gam= 0.16512 g(F)=  0.191E+00 g(S)=  0.288E-01 ort = 0.124E-01 (trialstep = 0.130E+00)
 search vector abs. value=  0.290E+00
 bond charge predicted
       N       E                     dE             d eps       ncg     rms          rms(c)
DAV:   1    -0.652295850352E+02   -0.26938E-01   -0.45428E-01   480   0.498E+00    0.269E-01
DAV:   2    -0.652285320323E+02    0.10530E-02   -0.92948E-03   496   0.678E-01    0.152E-01
DAV:   3    -0.652280740949E+02    0.45794E-03   -0.23929E-03   464   0.322E-01    0.411E-02
DAV:   4    -0.652280642234E+02    0.98715E-05   -0.22669E-04   432   0.104E-01
  54 F= -.65228064E+02 E0= -.65216000E+02  d E =-.254967E-01
 trial-energy change:   -0.025497  1 .order   -0.025305   -0.028924   -0.021687
 step:   0.5205(harm=  0.5205)  dis= 0.02239  next Energy=   -65.260369 (dE=-0.578E-01)
 bond charge predicted
       N       E                     dE             d eps       ncg     rms          rms(c)
DAV:   1    -0.652786950741E+02   -0.50621E-01   -0.40684E+00   448   0.148E+01    0.822E-01
DAV:   2    -0.652674821538E+02    0.11213E-01   -0.87507E-02   448   0.205E+00    0.456E-01
DAV:   3    -0.652624001484E+02    0.50820E-02   -0.19054E-02   496   0.898E-01    0.149E-01
DAV:   4    -0.652620541237E+02    0.34602E-03   -0.18615E-03   504   0.276E-01    0.715E-02
DAV:   5    -0.652620999072E+02   -0.45783E-04   -0.35579E-04   384   0.115E-01
  55 F= -.65262100E+02 E0= -.65246100E+02  d E =-.595324E-01
 curvature:  -0.34 expect dE=-0.461E-01 dE for cont linesearch -0.908E-04
 trial: gam= 0.60277 g(F)=  0.109E+00 g(S)=  0.261E-01 ort = 0.881E-02 (trialstep = 0.208E+00)
 search vector abs. value=  0.252E+00
 bond charge predicted
       N       E                     dE             d eps       ncg     rms          rms(c)
DAV:   1    -0.652886960776E+02   -0.26642E-01   -0.95472E-01   384   0.683E+00    0.350E-01
DAV:   2    -0.652866132863E+02    0.20828E-02   -0.21783E-02   512   0.983E-01    0.197E-01
DAV:   3    -0.652853706976E+02    0.12426E-02   -0.36588E-03   512   0.376E-01    0.741E-02
DAV:   4    -0.652853286505E+02    0.42047E-04   -0.61930E-04   464   0.151E-01
  56 F= -.65285329E+02 E0= -.65266385E+02  d E =-.232287E-01
 trial-energy change:   -0.023229  1 .order   -0.023454   -0.029322   -0.017587
 step:   0.5204(harm=  0.5204)  dis= 0.02694  next Energy=   -65.298733 (dE=-0.366E-01)
 bond charge predicted
       N       E                     dE             d eps       ncg     rms          rms(c)
DAV:   1    -0.653063895551E+02   -0.21019E-01   -0.21511E+00   384   0.102E+01    0.545E-01
DAV:   2    -0.653012958023E+02    0.50938E-02   -0.50523E-02   512   0.150E+00    0.301E-01
DAV:   3    -0.652985211653E+02    0.27746E-02   -0.81395E-03   512   0.567E-01    0.127E-01
DAV:   4    -0.652982292790E+02    0.29189E-03   -0.19086E-03   496   0.259E-01    0.540E-02
DAV:   5    -0.652983432652E+02   -0.11399E-03   -0.14440E-04   312   0.821E-02    0.268E-02
DAV:   6    -0.652985404087E+02   -0.19714E-03   -0.11871E-04   304   0.650E-02    0.101E-02
DAV:   7    -0.652987077147E+02   -0.16731E-03   -0.53643E-05   304   0.496E-02    0.537E-03
DAV:   8    -0.652988486765E+02   -0.14096E-03   -0.71837E-05   320   0.358E-02    0.527E-03
DAV:   9    -0.652988980977E+02   -0.49421E-04   -0.30306E-05   320   0.278E-02
  57 F= -.65298898E+02 E0= -.65275191E+02  d E =-.367982E-01
 curvature:  -0.46 expect dE=-0.966E-01 dE for cont linesearch -0.389E-05
 trial: gam= 1.58941 g(F)=  0.193E+00 g(S)=  0.148E-01 ort = 0.145E-02 (trialstep = 0.803E-01)
 search vector abs. value=  0.848E+00
 bond charge predicted
       N       E                     dE             d eps       ncg     rms          rms(c)
DAV:   1    -0.653142914889E+02   -0.15443E-01   -0.47526E-01   384   0.473E+00    0.224E-01
DAV:   2    -0.653138507097E+02    0.44078E-03   -0.10243E-02   512   0.695E-01    0.137E-01
DAV:   3    -0.653132529417E+02    0.59777E-03   -0.24678E-03   440   0.313E-01    0.402E-02
DAV:   4    -0.653132190976E+02    0.33844E-04   -0.27746E-04   448   0.111E-01
  58 F= -.65313219E+02 E0= -.65290911E+02  d E =-.143210E-01
 trial-energy change:   -0.014321  1 .order   -0.014433   -0.016871   -0.011995
 step:   0.2779(harm=  0.2779)  dis= 0.02711  next Energy=   -65.328088 (dE=-0.292E-01)
 bond charge predicted
       N       E                     dE             d eps       ncg     rms          rms(c)
DAV:   1    -0.653340380560E+02   -0.20785E-01   -0.28745E+00   400   0.116E+01    0.556E-01
DAV:   2    -0.653309189193E+02    0.31191E-02   -0.61873E-02   496   0.172E+00    0.339E-01
DAV:   3    -0.653273997836E+02    0.35191E-02   -0.15437E-02   496   0.782E-01    0.101E-01
DAV:   4    -0.653272855101E+02    0.11427E-03   -0.17704E-03   440   0.273E-01    0.654E-02
DAV:   5    -0.653273246534E+02   -0.39143E-04   -0.45468E-04   456   0.128E-01
  59 F= -.65327325E+02 E0= -.65308311E+02  d E =-.284266E-01
 curvature:  -0.56 expect dE=-0.536E-01 dE for cont linesearch -0.783E-07
 trial: gam= 0.45423 g(F)=  0.815E-01 g(S)=  0.141E-01 ort = 0.344E-03 (trialstep = 0.120E+00)
 search vector abs. value=  0.271E+00
 bond charge predicted
       N       E                     dE             d eps       ncg     rms          rms(c)
DAV:   1    -0.653387989142E+02   -0.11513E-01   -0.34413E-01   392   0.389E+00    0.185E-01
DAV:   2    -0.653383255042E+02    0.47341E-03   -0.66269E-03   488   0.547E-01    0.109E-01
DAV:   3    -0.653378797299E+02    0.44577E-03   -0.13810E-03   472   0.209E-01    0.307E-02
DAV:   4    -0.653379365151E+02   -0.56785E-04   -0.78363E-05   304   0.618E-02
  60 F= -.65337937E+02 E0= -.65321042E+02  d E =-.106119E-01
 ZBRENT: can't locate minimum, use default step
 trial-energy change:   -0.010612  1 .order   -0.010652   -0.011470   -0.009835
 step:   0.4794(harm=  0.8407)  dis= 0.02371  next Energy=   -65.367558 (dE=-0.402E-01)
 bond charge predicted
       N       E                     dE             d eps       ncg     rms          rms(c)
DAV:   1    -0.653668300904E+02   -0.28950E-01   -0.30869E+00   400   0.116E+01    0.556E-01
DAV:   2    -0.653628981002E+02    0.39320E-02   -0.59714E-02   480   0.164E+00    0.327E-01
DAV:   3    -0.653589019440E+02    0.39962E-02   -0.12065E-02   512   0.622E-01    0.904E-02
DAV:   4    -0.653588986385E+02    0.33054E-05   -0.75119E-04   448   0.181E-01
  61 F= -.65358899E+02 E0= -.65347636E+02  d E =-.315740E-01
 curvature:  -0.89 expect dE=-0.345E-01 dE for cont linesearch -0.576E-02
 ZBRENT: increasing intervall
 opt :   1.1984  next Energy=   -65.360056 (dE=-0.327E-01)
 bond charge predicted
       N       E                     dE             d eps       ncg     rms          rms(c)
DAV:   1    -0.653834543010E+02   -0.24552E-01   -0.12339E+01   384   0.233E+01    0.113E+00
DAV:   2    -0.653677167342E+02    0.15738E-01   -0.24602E-01   496   0.336E+00    0.662E-01
DAV:   3    -0.653518313864E+02    0.15885E-01   -0.48157E-02   512   0.125E+00    0.185E-01
DAV:   4    -0.653515276030E+02    0.30378E-03   -0.29346E-03   448   0.359E-01    0.875E-02
DAV:   5    -0.653517484595E+02   -0.22086E-03   -0.72146E-04   432   0.157E-01    0.326E-02
DAV:   6    -0.653521212506E+02   -0.37279E-03   -0.15180E-04   344   0.766E-02    0.177E-02
DAV:   7    -0.653525286860E+02   -0.40744E-03   -0.24256E-04   360   0.686E-02    0.130E-02
DAV:   8    -0.653527498462E+02   -0.22116E-03   -0.16680E-04   368   0.504E-02    0.742E-03
DAV:   9    -0.653527758573E+02   -0.26011E-04   -0.33033E-05   312   0.282E-02
  62 F= -.65352776E+02 E0= -.65349072E+02  d E =-.254512E-01
 curvature:  -0.18 expect dE=-0.305E-01 dE for cont linesearch -0.225E-02
 ZBRENT: bracketing found
 ZBRENT: interpolating
 opt :   0.7798  next Energy=   -65.365183 (dE=-0.379E-01)
 bond charge predicted
       N       E                     dE             d eps       ncg     rms          rms(c)
DAV:   1    -0.653777143010E+02   -0.24964E-01   -0.42672E+00   432   0.138E+01    0.656E-01
DAV:   2    -0.653709201360E+02    0.67942E-02   -0.64982E-02   472   0.173E+00    0.387E-01
DAV:   3    -0.653650623804E+02    0.58578E-02   -0.17406E-02   520   0.751E-01    0.103E-01
DAV:   4    -0.653648013059E+02    0.26107E-03   -0.10081E-03   512   0.223E-01    0.527E-02
DAV:   5    -0.653647119400E+02    0.89366E-04   -0.21095E-04   376   0.879E-02
  63 F= -.65364712E+02 E0= -.65357356E+02  d E =-.373873E-01
 curvature:  -0.50 expect dE=-0.284E-01 dE for cont linesearch -0.180E-04
 trial: gam= 0.57220 g(F)=  0.467E-01 g(S)=  0.101E-01 ort =-0.312E-02 (trialstep = 0.252E+00)
 search vector abs. value=  0.142E+00
 bond charge predicted
       N       E                     dE             d eps       ncg     rms          rms(c)
DAV:   1    -0.653790165628E+02   -0.14215E-01   -0.87038E-01   400   0.639E+00    0.305E-01
DAV:   2    -0.653781842913E+02    0.83227E-03   -0.18194E-02   488   0.881E-01    0.181E-01
DAV:   3    -0.653773466045E+02    0.83769E-03   -0.40572E-03   400   0.390E-01    0.462E-02
DAV:   4    -0.653773410402E+02    0.55643E-05   -0.27421E-04   440   0.117E-01
  64 F= -.65377341E+02 E0= -.65369607E+02  d E =-.126291E-01
 trial-energy change:   -0.012629  1 .order   -0.012184   -0.013851   -0.010516
 step:   0.5430(harm=  1.0459)  dis= 0.01871  next Energy=   -65.384109 (dE=-0.194E-01)
 bond charge predicted
       N       E                     dE             d eps       ncg     rms          rms(c)
DAV:   1    -0.653901602856E+02   -0.12814E-01   -0.11722E+00   400   0.740E+00    0.356E-01
DAV:   2    -0.653884664749E+02    0.16938E-02   -0.24614E-02   456   0.103E+00    0.211E-01
DAV:   3    -0.653869005411E+02    0.15659E-02   -0.59182E-03   488   0.465E-01    0.562E-02
DAV:   4    -0.653869460994E+02   -0.45558E-04   -0.41557E-04   472   0.138E-01
  65 F= -.65386946E+02 E0= -.65378757E+02  d E =-.222342E-01
 curvature:  -0.81 expect dE=-0.501E-01 dE for cont linesearch -0.406E-02
 ZBRENT: increasing intervall
 opt :   1.1253  next Energy=   -65.393716 (dE=-0.290E-01)
 bond charge predicted
       N       E                     dE             d eps       ncg     rms          rms(c)
DAV:   1    -0.654045908256E+02   -0.17690E-01   -0.46780E+00   384   0.147E+01    0.722E-01
DAV:   2    -0.653977916220E+02    0.67992E-02   -0.99711E-02   496   0.209E+00    0.425E-01
DAV:   3    -0.653917493981E+02    0.60422E-02   -0.22733E-02   496   0.921E-01    0.113E-01
DAV:   4    -0.653918527981E+02   -0.10340E-03   -0.15367E-03   440   0.267E-01    0.620E-02
DAV:   5    -0.653920644810E+02   -0.21168E-03   -0.34369E-04   424   0.110E-01    0.198E-02
DAV:   6    -0.653922458868E+02   -0.18141E-03   -0.50056E-05   344   0.517E-02    0.107E-02
DAV:   7    -0.653924722357E+02   -0.22635E-03   -0.88517E-05   296   0.451E-02    0.787E-03
DAV:   8    -0.653926150693E+02   -0.14283E-03   -0.60170E-05   320   0.345E-02    0.386E-03
DAV:   9    -0.653926634951E+02   -0.48426E-04   -0.30167E-05   288   0.217E-02
  66 F= -.65392663E+02 E0= -.65383460E+02  d E =-.279516E-01
 curvature:  -1.35 expect dE=-0.277E+00 dE for cont linesearch -0.532E-03
 trial: gam= 3.69450 g(F)=  0.197E+00 g(S)=  0.848E-02 ort =-0.749E-02 (trialstep = 0.290E-01)
 search vector abs. value=  0.209E+01
 bond charge predicted
       N       E                     dE             d eps       ncg     rms          rms(c)
DAV:   1    -0.653977902944E+02   -0.51752E-02   -0.17379E-01   400   0.289E+00    0.130E-01
DAV:   2    -0.653976507401E+02    0.13955E-03   -0.35793E-03   440   0.397E-01    0.790E-02
DAV:   3    -0.653974425182E+02    0.20822E-03   -0.75752E-04   424   0.175E-01    0.194E-02
DAV:   4    -0.653974346188E+02    0.78994E-05   -0.60924E-05   352   0.564E-02
  67 F= -.65397435E+02 E0= -.65388613E+02  d E =-.477112E-02
 ZBRENT: can't locate minimum, use default step
 trial-energy change:   -0.004771  1 .order   -0.004774   -0.005159   -0.004390
 step:   0.1160(harm=  0.1945)  dis= 0.01629  next Energy=   -65.409962 (dE=-0.173E-01)
 bond charge predicted
       N       E                     dE             d eps       ncg     rms          rms(c)
DAV:   1    -0.654101364632E+02   -0.12694E-01   -0.15626E+00   384   0.864E+00    0.392E-01
DAV:   2    -0.654086924489E+02    0.14440E-02   -0.32447E-02   464   0.120E+00    0.238E-01
DAV:   3    -0.654068324780E+02    0.18600E-02   -0.69841E-03   472   0.534E-01    0.606E-02
DAV:   4    -0.654068333643E+02   -0.88622E-06   -0.64925E-04   424   0.176E-01
  68 F= -.65406833E+02 E0= -.65399090E+02  d E =-.141699E-01
 curvature:  -0.88 expect dE=-0.646E-01 dE for cont linesearch -0.232E-02
 ZBRENT: increasing intervall
 opt :   0.2900  next Energy=   -65.406226 (dE=-0.136E-01)
 bond charge predicted
       N       E                     dE             d eps       ncg     rms          rms(c)
DAV:   1    -0.654181744430E+02   -0.11342E-01   -0.62456E+00   384   0.172E+01    0.799E-01
DAV:   2    -0.654118335448E+02    0.63409E-02   -0.13112E-01   496   0.242E+00    0.480E-01
DAV:   3    -0.654045779346E+02    0.72556E-02   -0.27405E-02   464   0.107E+00    0.126E-01
DAV:   4    -0.654045598869E+02    0.18048E-04   -0.25960E-03   440   0.352E-01    0.763E-02
DAV:   5    -0.654047150547E+02   -0.15517E-03   -0.68456E-04   416   0.157E-01    0.276E-02
DAV:   6    -0.654048803904E+02   -0.16534E-03   -0.84202E-05   344   0.695E-02    0.145E-02
DAV:   7    -0.654051203616E+02   -0.23997E-03   -0.11184E-04   320   0.552E-02    0.949E-03
DAV:   8    -0.654052398423E+02   -0.11948E-03   -0.39887E-05   320   0.388E-02    0.493E-03
DAV:   9    -0.654053324272E+02   -0.92585E-04   -0.69483E-05   288   0.298E-02
  69 F= -.65405332E+02 E0= -.65399476E+02  d E =-.126689E-01
 curvature:   0.23 expect dE= 0.277E-01 dE for cont linesearch  0.931E-03
 trial: gam= 0.00000 g(F)=  0.109E+00 g(S)=  0.103E-01 ort =-0.916E-01 (trialstep = 0.812E-01)
 search vector abs. value=  0.120E+00
 bond charge predicted
       N       E                     dE             d eps       ncg     rms          rms(c)
DAV:   1    -0.654132221370E+02   -0.79823E-02   -0.98656E-02   416   0.221E+00    0.116E-01
DAV:   2    -0.654131573259E+02    0.64811E-04   -0.26984E-03   480   0.352E-01    0.684E-02
DAV:   3    -0.654130546456E+02    0.10268E-03   -0.49497E-04   488   0.150E-01    0.225E-02
DAV:   4    -0.654130526189E+02    0.20268E-05   -0.76909E-05   280   0.561E-02
  70 F= -.65413053E+02 E0= -.65406100E+02  d E =-.772019E-02
 trial-energy change:   -0.007720  1 .order   -0.007715   -0.009718   -0.005712
 step:   0.1970(harm=  0.1970)  dis= 0.00568  next Energy=   -65.417121 (dE=-0.118E-01)
 bond charge predicted
       N       E                     dE             d eps       ncg     rms          rms(c)
DAV:   1    -0.654175363424E+02   -0.44817E-02   -0.19966E-01   384   0.315E+00    0.166E-01
DAV:   2    -0.654174326298E+02    0.10371E-03   -0.56821E-03   512   0.500E-01    0.974E-02
DAV:   3    -0.654172196211E+02    0.21301E-03   -0.91505E-04   496   0.208E-01    0.336E-02
DAV:   4    -0.654172151582E+02    0.44629E-05   -0.17685E-04   360   0.815E-02
  71 F= -.65417215E+02 E0= -.65408451E+02  d E =-.118827E-01
 curvature:  -0.10 expect dE=-0.573E-02 dE for cont linesearch -0.267E-05
 trial: gam= 0.47081 g(F)=  0.550E-01 g(S)=  0.314E-02 ort = 0.180E-02 (trialstep = 0.104E+00)
 search vector abs. value=  0.864E-01
 bond charge predicted
       N       E                     dE             d eps       ncg     rms          rms(c)
DAV:   1    -0.654223840546E+02   -0.51644E-02   -0.93842E-02   384   0.220E+00    0.860E-02
DAV:   2    -0.654224038416E+02   -0.19787E-04   -0.20845E-03   496   0.312E-01    0.555E-02
DAV:   3    -0.654223489277E+02    0.54914E-04   -0.29134E-04   432   0.117E-01
  72 F= -.65422349E+02 E0= -.65413887E+02  d E =-.513377E-02
 trial-energy change:   -0.005134  1 .order   -0.005131   -0.006156   -0.004105
 step:   0.3132(harm=  0.3132)  dis= 0.00968  next Energy=   -65.426454 (dE=-0.924E-02)
 bond charge predicted
       N       E                     dE             d eps       ncg     rms          rms(c)
DAV:   1    -0.654266530235E+02   -0.42492E-02   -0.37688E-01   384   0.440E+00    0.176E-01
DAV:   2    -0.654267489412E+02   -0.95918E-04   -0.83537E-03   496   0.625E-01    0.113E-01
DAV:   3    -0.654265214612E+02    0.22748E-03   -0.11327E-03   512   0.230E-01    0.454E-02
DAV:   4    -0.654265117258E+02    0.97354E-05   -0.21888E-04   400   0.936E-02
  73 F= -.65426512E+02 E0= -.65418481E+02  d E =-.929657E-02
 curvature:  -0.23 expect dE=-0.608E-02 dE for cont linesearch -0.299E-06
 trial: gam= 0.46899 g(F)=  0.263E-01 g(S)=  0.285E-03 ort = 0.336E-03 (trialstep = 0.146E+00)
 search vector abs. value=  0.459E-01
 bond charge predicted
       N       E                     dE             d eps       ncg     rms          rms(c)
DAV:   1    -0.654298824721E+02   -0.33610E-02   -0.10549E-01   384   0.227E+00    0.585E-02
DAV:   2    -0.654299780715E+02   -0.95599E-04   -0.16827E-03   504   0.279E-01    0.394E-02
DAV:   3    -0.654299567188E+02    0.21353E-04   -0.87072E-05   328   0.703E-02
  74 F= -.65429957E+02 E0= -.65421708E+02  d E =-.344499E-02
 ZBRENT: can't locate minimum, use default step
 trial-energy change:   -0.003445  1 .order   -0.003439   -0.003901   -0.002977
 step:   0.5845(harm=  0.6168)  dis= 0.01690  next Energy=   -65.434745 (dE=-0.823E-02)
 bond charge predicted
       N       E                     dE             d eps       ncg     rms          rms(c)
DAV:   1    -0.654342322179E+02   -0.42541E-02   -0.94861E-01   384   0.681E+00    0.178E-01
DAV:   2    -0.654350600852E+02   -0.82787E-03   -0.15002E-02   536   0.834E-01    0.118E-01
DAV:   3    -0.654348851009E+02    0.17498E-03   -0.85197E-04   496   0.203E-01    0.479E-02
DAV:   4    -0.654348812524E+02    0.38484E-05   -0.16412E-04   392   0.763E-02
  75 F= -.65434881E+02 E0= -.65425849E+02  d E =-.836953E-02
 curvature:  -0.53 expect dE=-0.566E-02 dE for cont linesearch -0.454E-04
 trial: gam= 0.33190 g(F)=  0.944E-02 g(S)=  0.129E-02 ort = 0.199E-02 (trialstep = 0.234E+00)
 search vector abs. value=  0.171E-01
 bond charge predicted
       N       E                     dE             d eps       ncg     rms          rms(c)
DAV:   1    -0.654371319365E+02   -0.22468E-02   -0.10839E-01   384   0.233E+00    0.703E-02
DAV:   2    -0.654372006312E+02   -0.68695E-04   -0.18995E-03   528   0.301E-01    0.444E-02
DAV:   3    -0.654371700502E+02    0.30581E-04   -0.13482E-04   344   0.905E-02
  76 F= -.65437170E+02 E0= -.65428705E+02  d E =-.228880E-02
 trial-energy change:   -0.002289  1 .order   -0.002250   -0.002665   -0.001836
 step:   0.7514(harm=  0.7514)  dis= 0.00823  next Energy=   -65.439163 (dE=-0.428E-02)
 bond charge predicted
       N       E                     dE             d eps       ncg     rms          rms(c)
DAV:   1    -0.654392769033E+02   -0.20763E-02   -0.53228E-01   384   0.515E+00    0.160E-01
DAV:   2    -0.654395818273E+02   -0.30492E-03   -0.92374E-03   528   0.661E-01    0.102E-01
DAV:   3    -0.654394108276E+02    0.17100E-03   -0.80453E-04   488   0.206E-01    0.349E-02
DAV:   4    -0.654394119049E+02   -0.10773E-05   -0.12888E-04   400   0.694E-02
  77 F= -.65439412E+02 E0= -.65432153E+02  d E =-.453065E-02
 curvature:  -0.56 expect dE=-0.761E-02 dE for cont linesearch -0.806E-05
 trial: gam= 1.30181 g(F)=  0.117E-01 g(S)=  0.178E-02 ort = 0.495E-03 (trialstep = 0.132E+00)
 search vector abs. value=  0.438E-01
 bond charge predicted
       N       E                     dE             d eps       ncg     rms          rms(c)
DAV:   1    -0.654408837001E+02   -0.14729E-02   -0.91206E-02   384   0.208E+00    0.698E-02
DAV:   2    -0.654409281971E+02   -0.44497E-04   -0.16175E-03   520   0.280E-01    0.468E-02
DAV:   3    -0.654408871825E+02    0.41015E-04   -0.24736E-04   440   0.108E-01
  78 F= -.65440887E+02 E0= -.65433213E+02  d E =-.147528E-02
 trial-energy change:   -0.001475  1 .order   -0.001440   -0.001863   -0.001016
 step:   0.2899(harm=  0.2899)  dis= 0.00395  next Energy=   -65.441461 (dE=-0.205E-02)
 bond charge predicted
       N       E                     dE             d eps       ncg     rms          rms(c)
DAV:   1    -0.654415871036E+02   -0.65891E-03   -0.13174E-01   384   0.250E+00    0.865E-02
DAV:   2    -0.654416552995E+02   -0.68196E-04   -0.23284E-03   528   0.336E-01    0.575E-02
DAV:   3    -0.654415915453E+02    0.63754E-04   -0.34492E-04   496   0.129E-01
  79 F= -.65441592E+02 E0= -.65433451E+02  d E =-.217964E-02
 curvature:  -0.45 expect dE=-0.692E-02 dE for cont linesearch -0.212E-05
 trial: gam= 1.13638 g(F)=  0.143E-01 g(S)=  0.116E-02 ort = 0.455E-03 (trialstep = 0.980E-01)
 search vector abs. value=  0.730E-01
 bond charge predicted
       N       E                     dE             d eps       ncg     rms          rms(c)
DAV:   1    -0.654430429688E+02   -0.13877E-02   -0.81278E-02   384   0.194E+00    0.605E-02
DAV:   2    -0.654430916177E+02   -0.48649E-04   -0.13559E-03   512   0.256E-01    0.396E-02
DAV:   3    -0.654430661535E+02    0.25464E-04   -0.11270E-04   360   0.794E-02
  80 F= -.65443066E+02 E0= -.65435003E+02  d E =-.147461E-02
 ZBRENT: can't locate minimum, use default step
 trial-energy change:   -0.001475  1 .order   -0.001440   -0.001563   -0.001317
 step:   0.3921(harm=  0.6244)  dis= 0.00733  next Energy=   -65.446569 (dE=-0.498E-02)
 bond charge predicted
       N       E                     dE             d eps       ncg     rms          rms(c)
DAV:   1    -0.654457738895E+02   -0.26823E-02   -0.72998E-01   384   0.581E+00    0.173E-01
DAV:   2    -0.654462381067E+02   -0.46422E-03   -0.12297E-02   512   0.769E-01    0.114E-01
DAV:   3    -0.654460061051E+02    0.23200E-03   -0.10496E-03   448   0.230E-01    0.390E-02
DAV:   4    -0.654460068956E+02   -0.79052E-06   -0.16622E-04   424   0.807E-02
  81 F= -.65446007E+02 E0= -.65438073E+02  d E =-.441535E-02
 curvature:  -1.15 expect dE=-0.699E-02 dE for cont linesearch -0.616E-03
 trial: gam= 0.04677 g(F)=  0.522E-02 g(S)=  0.852E-03 ort = 0.625E-02 (trialstep = 0.157E+00)
 search vector abs. value=  0.682E-02
 bond charge predicted
       N       E                     dE             d eps       ncg     rms          rms(c)
DAV:   1    -0.654468765499E+02   -0.87044E-03   -0.16108E-02   384   0.896E-01    0.371E-02
DAV:   2    -0.654468760111E+02    0.53877E-06   -0.32503E-04   432   0.129E-01
  82 F= -.65446876E+02 E0= -.65439017E+02  d E =-.869115E-03
 ZBRENT: can't locate minimum, use default step
 trial-energy change:   -0.000869  1 .order   -0.000875   -0.000999   -0.000751
 step:   0.6274(harm=  0.6313)  dis= 0.00393  next Energy=   -65.448017 (dE=-0.201E-02)
 bond charge predicted
       N       E                     dE             d eps       ncg     rms          rms(c)
DAV:   1    -0.654478888887E+02   -0.10123E-02   -0.14399E-01   384   0.268E+00    0.116E-01
DAV:   2    -0.654478313992E+02    0.57489E-04   -0.28710E-03   512   0.378E-01    0.699E-02
DAV:   3    -0.654477186079E+02    0.11279E-03   -0.45018E-04   416   0.142E-01    0.250E-02
DAV:   4    -0.654477139010E+02    0.47068E-05   -0.84120E-05   352   0.594E-02
  83 F= -.65447714E+02 E0= -.65440146E+02  d E =-.170701E-02
 curvature:  -0.34 expect dE=-0.494E-02 dE for cont linesearch -0.383E-04
 trial: gam= 2.60222 g(F)=  0.139E-01 g(S)=  0.712E-03 ort =-0.879E-03 (trialstep = 0.304E-01)
 search vector abs. value=  0.562E-01
 bond charge predicted
       N       E                     dE             d eps       ncg     rms          rms(c)
DAV:   1    -0.654480669722E+02   -0.34836E-03   -0.47477E-03   432   0.480E-01    0.204E-02
DAV:   2    -0.654480640703E+02    0.29019E-05   -0.80338E-05   352   0.663E-02
  84 F= -.65448064E+02 E0= -.65440320E+02  d E =-.350169E-03
 ZBRENT: can't locate minimum, use default step
 trial-energy change:   -0.000350  1 .order   -0.000351   -0.000375   -0.000326
 step:   0.1218(harm=  0.2305)  dis= 0.00259  next Energy=   -65.449135 (dE=-0.142E-02)
 bond charge predicted
       N       E                     dE             d eps       ncg     rms          rms(c)
DAV:   1    -0.654488242215E+02   -0.75725E-03   -0.42764E-02   384   0.144E+00    0.623E-02
DAV:   2    -0.654487881049E+02    0.36117E-04   -0.81807E-04   496   0.198E-01
  85 F= -.65448788E+02 E0= -.65440509E+02  d E =-.107420E-02
 curvature:  -0.37 expect dE=-0.302E-02 dE for cont linesearch -0.225E-03
 trial: gam=-0.07979 g(F)=  0.701E-02 g(S)=  0.114E-02 ort = 0.585E-02 (trialstep = 0.487E-01)
 search vector abs. value=  0.757E-02
 bond charge predicted
       N       E                     dE             d eps       ncg     rms          rms(c)
DAV:   1    -0.654490789287E+02   -0.25471E-03   -0.19772E-03   448   0.327E-01    0.243E-02
DAV:   2    -0.654490692499E+02    0.96787E-05   -0.55026E-05   360   0.558E-02
  86 F= -.65449069E+02 E0= -.65440748E+02  d E =-.281145E-03
 ZBRENT: can't locate minimum, use default step
 trial-energy change:   -0.000281  1 .order   -0.000335   -0.000374   -0.000296
 step:   0.1948(harm=  0.2342)  dis= 0.00101  next Energy=   -65.449687 (dE=-0.899E-03)
 bond charge predicted
       N       E                     dE             d eps       ncg     rms          rms(c)
DAV:   1    -0.654496385522E+02   -0.55962E-03   -0.17930E-02   416   0.973E-01    0.593E-02
DAV:   2    -0.654495918037E+02    0.46749E-04   -0.44560E-04   504   0.153E-01
  87 F= -.65449592E+02 E0= -.65440861E+02  d E =-.803699E-03
 curvature:  -0.11 expect dE=-0.439E-03 dE for cont linesearch -0.542E-04
 trial: gam= 0.21145 g(F)=  0.280E-02 g(S)=  0.118E-02 ort = 0.193E-02 (trialstep = 0.779E-01)
 search vector abs. value=  0.514E-02
 reached required accuracy - stopping structural energy minimisation
 writing wavefunctions
Sun Mar  6 19:41:56 CST 2022
