Sun Mar  6 19:42:11 CST 2022
 running on   48 total cores
 distrk:  each k-point on   48 cores,    1 groups
 distr:  one band on   24 cores,    2 groups
 using from now: INCAR     
 vasp.5.3.5 31Mar14 (build Jan 11 2016 19:50:55) complex                        
  
 POSCAR found type information on POSCAR  B  C  Na
 POSCAR found :  3 types and       9 ions
 scaLAPACK will be used

 ----------------------------------------------------------------------------- 
|                                                                             |
|           W    W    AA    RRRRR   N    N  II  N    N   GGGG   !!!           |
|           W    W   A  A   R    R  NN   N  II  NN   N  G    G  !!!           |
|           W    W  A    A  R    R  N N  N  II  N N  N  G       !!!           |
|           W WW W  AAAAAA  RRRRR   N  N N  II  N  N N  G  GGG   !            |
|           WW  WW  A    A  R   R   N   NN  II  N   NN  G    G                |
|           W    W  A    A  R    R  N    N  II  N    N   GGGG   !!!           |
|                                                                             |
|      For optimal performance we recommend to set                            |
|        NCORE= 4 - approx SQRT( number of cores)                             |
|      NCORE specifies how many cores store one orbital (NPAR=cpu/NCORE).     |
|      This setting can  greatly improve the performance of VASP for DFT.     |
|      The default, NPAR=number of cores might be grossly inefficient         |
|      on modern multi-core architectures or massively parallel machines.     |
|      Do your own testing !!!!                                               |
|      Unfortunately you need to use the default for GW and RPA calculations. |
|      (for HF NCORE is supported but not extensively tested yet)             |
|                                                                             |
 ----------------------------------------------------------------------------- 

 LDA part: xc-table for Pade appr. of Perdew
 POSCAR, INCAR and KPOINTS ok, starting setup
 WARNING: small aliasing (wrap around) errors must be expected
 FFT: planning ...
 WAVECAR not read
 entering main loop
       N       E                     dE             d eps       ncg     rms          rms(c)
DAV:   1     0.276994898654E+03    0.27699E+03   -0.12169E+04   448   0.874E+02
DAV:   2    -0.104596201557E+02   -0.28745E+03   -0.28142E+03   592   0.238E+02
DAV:   3    -0.668483128328E+02   -0.56389E+02   -0.56140E+02   472   0.108E+02
DAV:   4    -0.696945506201E+02   -0.28462E+01   -0.28363E+01   584   0.299E+01
DAV:   5    -0.697439358264E+02   -0.49385E-01   -0.49312E-01   504   0.343E+00    0.126E+01
DAV:   6    -0.634119959129E+02    0.63319E+01   -0.98757E+00   496   0.245E+01    0.689E+00
DAV:   7    -0.614338502465E+02    0.19781E+01   -0.70562E+00   576   0.122E+01    0.264E+00
DAV:   8    -0.612178115226E+02    0.21604E+00   -0.72962E-01   480   0.406E+00    0.786E-01
DAV:   9    -0.611875507663E+02    0.30261E-01   -0.11779E-01   512   0.161E+00    0.445E-01
DAV:  10    -0.611849623185E+02    0.25884E-02   -0.48485E-02   464   0.905E-01    0.236E-01
DAV:  11    -0.611794047847E+02    0.55575E-02   -0.10012E-02   528   0.367E-01    0.147E-01
DAV:  12    -0.611804838157E+02   -0.10790E-02   -0.53350E-03   488   0.283E-01    0.783E-02
DAV:  13    -0.611825339286E+02   -0.20501E-02   -0.19860E-03   504   0.192E-01    0.484E-02
DAV:  14    -0.611854190314E+02   -0.28851E-02   -0.18937E-03   464   0.138E-01    0.393E-02
DAV:  15    -0.611863957249E+02   -0.97669E-03   -0.39852E-04   376   0.861E-02    0.160E-02
DAV:  16    -0.611869305457E+02   -0.53482E-03   -0.16162E-04   368   0.509E-02    0.999E-03
DAV:  17    -0.611871061036E+02   -0.17556E-03   -0.77057E-05   352   0.368E-02    0.676E-03
DAV:  18    -0.611871517935E+02   -0.45690E-04   -0.22278E-05   352   0.237E-02
   1 F= -.61187152E+02 E0= -.61162000E+02  d E =-.611872E+02
 curvature:   0.00 expect dE= 0.000E+00 dE for cont linesearch  0.000E+00
 trial: gam= 0.00000 g(F)=  0.270E+00 g(S)=  0.398E-01 ort = 0.000E+00 (trialstep = 0.100E+01)
 search vector abs. value=  0.310E+00
 bond charge predicted
       N       E                     dE             d eps       ncg     rms          rms(c)
DAV:   1    -0.610938730810E+02    0.93233E-01   -0.44916E+01   384   0.458E+01    0.254E+00
DAV:   2    -0.609859908756E+02    0.10788E+00   -0.13684E+00   496   0.771E+00    0.140E+00
DAV:   3    -0.609463874498E+02    0.39603E-01   -0.23154E-01   456   0.272E+00    0.813E-01
DAV:   4    -0.609429527553E+02    0.34347E-02   -0.31691E-02   480   0.945E-01    0.385E-01
DAV:   5    -0.609409232125E+02    0.20295E-02   -0.64140E-03   456   0.479E-01    0.910E-02
DAV:   6    -0.609410553426E+02   -0.13213E-03   -0.25428E-03   472   0.270E-01    0.465E-02
DAV:   7    -0.609413422866E+02   -0.28694E-03   -0.19339E-04   320   0.887E-02    0.205E-02
DAV:   8    -0.609415697028E+02   -0.22742E-03   -0.89392E-05   320   0.497E-02    0.108E-02
DAV:   9    -0.609417647363E+02   -0.19503E-03   -0.74333E-05   312   0.428E-02    0.713E-03
DAV:  10    -0.609418696224E+02   -0.10489E-03   -0.40021E-05   320   0.290E-02    0.632E-03
DAV:  11    -0.609419133501E+02   -0.43728E-04   -0.13764E-05   336   0.166E-02
   2 F= -.60941913E+02 E0= -.60922058E+02  d E =0.245238E+00
 trial-energy change:    0.245238  1 .order    0.226649   -0.309874    0.763172
 step:   0.2684(harm=  0.2888)  dis= 0.01273  next Energy=   -61.228373 (dE=-0.412E-01)
 bond charge predicted
       N       E                     dE             d eps       ncg     rms          rms(c)
DAV:   1    -0.613072415656E+02   -0.36537E+00   -0.24019E+01   448   0.340E+01    0.173E+00
DAV:   2    -0.612564043317E+02    0.50837E-01   -0.64051E-01   480   0.553E+00    0.991E-01
DAV:   3    -0.612316293138E+02    0.24775E-01   -0.22206E-01   480   0.249E+00    0.374E-01
DAV:   4    -0.612283353959E+02    0.32939E-02   -0.22081E-02   464   0.780E-01    0.208E-01
DAV:   5    -0.612278040923E+02    0.53130E-03   -0.53929E-03   512   0.321E-01    0.759E-02
DAV:   6    -0.612276640478E+02    0.14004E-03   -0.78236E-04   472   0.143E-01    0.337E-02
DAV:   7    -0.612277311906E+02   -0.67143E-04   -0.90933E-05   320   0.670E-02
   3 F= -.61227731E+02 E0= -.61203669E+02  d E =-.405794E-01
 curvature:  -0.14 expect dE=-0.223E-01 dE for cont linesearch -0.142E-06
 trial: gam= 0.49604 g(F)=  0.880E-01 g(S)=  0.663E-01 ort = 0.553E-03 (trialstep = 0.854E+00)
 search vector abs. value=  0.231E+00
 bond charge predicted
       N       E                     dE             d eps       ncg     rms          rms(c)
DAV:   1    -0.614363552754E+02   -0.20869E+00   -0.15426E+01   448   0.245E+01    0.215E+00
DAV:   2    -0.613356359688E+02    0.10072E+00   -0.65605E-01   456   0.432E+00    0.115E+00
DAV:   3    -0.613089823794E+02    0.26654E-01   -0.11396E-01   464   0.221E+00    0.454E-01
DAV:   4    -0.613046393283E+02    0.43431E-02   -0.15728E-02   472   0.782E-01    0.180E-01
DAV:   5    -0.613037478488E+02    0.89148E-03   -0.45274E-03   456   0.359E-01    0.595E-02
DAV:   6    -0.613037541711E+02   -0.63223E-05   -0.46693E-04   472   0.126E-01
   4 F= -.61303754E+02 E0= -.61283165E+02  d E =-.760230E-01
 trial-energy change:   -0.076023  1 .order   -0.075275   -0.131923   -0.018627
 step:   0.9879(harm=  0.9940)  dis= 0.01572  next Energy=   -61.305221 (dE=-0.775E-01)
 bond charge predicted
       N       E                     dE             d eps       ncg     rms          rms(c)
DAV:   1    -0.613093014757E+02   -0.55536E-02   -0.40183E-01   488   0.409E+00    0.341E-01
DAV:   2    -0.613062064092E+02    0.30951E-02   -0.94462E-03   448   0.586E-01    0.170E-01
DAV:   3    -0.613055625542E+02    0.64385E-03   -0.25645E-03   464   0.320E-01    0.608E-02
DAV:   4    -0.613055208156E+02    0.41739E-04   -0.26317E-04   408   0.101E-01
   5 F= -.61305521E+02 E0= -.61285760E+02  d E =-.777896E-01
 curvature:  -0.74 expect dE=-0.224E+00 dE for cont linesearch -0.276E-04
 trial: gam= 1.99739 g(F)=  0.174E+00 g(S)=  0.128E+00 ort =-0.293E-02 (trialstep = 0.168E+00)
 search vector abs. value=  0.121E+01
 bond charge predicted
       N       E                     dE             d eps       ncg     rms          rms(c)
DAV:   1    -0.613836718083E+02   -0.78109E-01   -0.41458E+00   416   0.119E+01    0.847E-01
DAV:   2    -0.613601465169E+02    0.23525E-01   -0.12243E-01   432   0.193E+00    0.457E-01
DAV:   3    -0.613549170029E+02    0.52295E-02   -0.13899E-02   456   0.732E-01    0.219E-01
DAV:   4    -0.613535081602E+02    0.14088E-02   -0.29055E-03   488   0.346E-01    0.774E-02
DAV:   5    -0.613534042298E+02    0.10393E-03   -0.51649E-04   480   0.123E-01    0.195E-02
DAV:   6    -0.613534823779E+02   -0.78148E-04   -0.43784E-05   320   0.400E-02
   6 F= -.61353482E+02 E0= -.61335741E+02  d E =-.479616E-01
 ZBRENT: can't locate minimum, use default step
 trial-energy change:   -0.047962  1 .order   -0.048264   -0.049769   -0.046759
 step:   0.6711(harm=  2.7744)  dis= 0.02945  next Energy=   -61.717011 (dE=-0.411E+00)
 bond charge predicted
       N       E                     dE             d eps       ncg     rms          rms(c)
DAV:   1    -0.617159701144E+02   -0.36257E+00   -0.36769E+01   400   0.355E+01    0.255E+00
DAV:   2    -0.615343435941E+02    0.18163E+00   -0.16773E+00   472   0.796E+00    0.145E+00
DAV:   3    -0.614858827066E+02    0.48461E-01   -0.14784E-01   496   0.258E+00    0.702E-01
DAV:   4    -0.614737122050E+02    0.12171E-01   -0.21618E-02   472   0.106E+00    0.251E-01
DAV:   5    -0.614720839145E+02    0.16283E-02   -0.34579E-03   496   0.323E-01    0.537E-02
DAV:   6    -0.614723888345E+02   -0.30492E-03   -0.40552E-04   416   0.122E-01    0.298E-02
DAV:   7    -0.614729692631E+02   -0.58043E-03   -0.40930E-04   400   0.911E-02    0.167E-02
DAV:   8    -0.614733876969E+02   -0.41843E-03   -0.16738E-04   344   0.554E-02    0.926E-03
DAV:   9    -0.614736117595E+02   -0.22406E-03   -0.11617E-04   360   0.390E-02    0.578E-03
DAV:  10    -0.614736999201E+02   -0.88161E-04   -0.29621E-05   344   0.227E-02
   7 F= -.61473700E+02 E0= -.61463929E+02  d E =-.168179E+00
 curvature:  -1.98 expect dE=-0.401E+00 dE for cont linesearch -0.629E-01
 ZBRENT: increasing intervall
 opt :   1.6778  next Energy=   -61.588582 (dE=-0.283E+00)
 bond charge predicted
       N       E                     dE             d eps       ncg     rms          rms(c)
DAV:   1    -0.625203969391E+02   -0.10468E+01   -0.15400E+02   400   0.782E+01    0.552E+00
DAV:   2    -0.617826824572E+02    0.73771E+00   -0.62593E+00   448   0.148E+01    0.280E+00
DAV:   3    -0.615801776700E+02    0.20250E+00   -0.79233E-01   560   0.528E+00    0.118E+00
DAV:   4    -0.615544634010E+02    0.25714E-01   -0.44215E-02   520   0.127E+00    0.496E-01
DAV:   5    -0.615489706315E+02    0.54928E-02   -0.10154E-02   464   0.562E-01    0.101E-01
DAV:   6    -0.615496715984E+02   -0.70097E-03   -0.16630E-03   504   0.230E-01    0.411E-02
DAV:   7    -0.615504079041E+02   -0.73631E-03   -0.43553E-04   424   0.110E-01    0.272E-02
DAV:   8    -0.615513265235E+02   -0.91862E-03   -0.76437E-04   408   0.113E-01    0.146E-02
DAV:   9    -0.615515442507E+02   -0.21773E-03   -0.12968E-04   360   0.522E-02    0.851E-03
DAV:  10    -0.615516073062E+02   -0.63055E-04   -0.60919E-05   376   0.299E-02
   8 F= -.61551607E+02 E0= -.61551382E+02  d E =-.246086E+00
 curvature:  -3.61 expect dE=-0.865E+00 dE for cont linesearch -0.157E-01
 ZBRENT: bracketing found
 ZBRENT: interpolating
 opt :   1.4058  next Energy=   -61.561493 (dE=-0.256E+00)
 bond charge predicted
       N       E                     dE             d eps       ncg     rms          rms(c)
DAV:   1    -0.616442013916E+02   -0.92657E-01   -0.12030E+01   456   0.222E+01    0.140E+00
DAV:   2    -0.615829549003E+02    0.61246E-01   -0.18493E-01   464   0.318E+00    0.733E-01
DAV:   3    -0.615596499139E+02    0.23305E-01   -0.11822E-01   496   0.176E+00    0.211E-01
DAV:   4    -0.615584761660E+02    0.11737E-02   -0.67053E-03   480   0.494E-01    0.120E-01
DAV:   5    -0.615578106092E+02    0.66556E-03   -0.17835E-03   512   0.220E-01    0.398E-02
DAV:   6    -0.615577503070E+02    0.60302E-04   -0.13635E-04   360   0.814E-02
   9 F= -.61557750E+02 E0= -.61556790E+02  d E =-.252229E+00
 curvature:  -2.27 expect dE=-0.442E+00 dE for cont linesearch -0.117E-03
 trial: gam= 0.15016 g(F)=  0.130E+00 g(S)=  0.644E-01 ort = 0.791E-02 (trialstep = 0.415E+00)
 search vector abs. value=  0.225E+00
 bond charge predicted
       N       E                     dE             d eps       ncg     rms          rms(c)
DAV:   1    -0.616113734782E+02   -0.53563E-01   -0.36202E+00   384   0.134E+01    0.682E-01
DAV:   2    -0.616075191042E+02    0.38544E-02   -0.10892E-01   520   0.230E+00    0.424E-01
DAV:   3    -0.616037213075E+02    0.37978E-02   -0.17966E-02   496   0.816E-01    0.179E-01
DAV:   4    -0.616031037645E+02    0.61754E-03   -0.39702E-03   528   0.358E-01    0.893E-02
DAV:   5    -0.616029426640E+02    0.16110E-03   -0.44625E-04   480   0.123E-01    0.271E-02
DAV:   6    -0.616029648691E+02   -0.22205E-04   -0.44584E-05   376   0.470E-02
  10 F= -.61602965E+02 E0= -.61602056E+02  d E =-.452146E-01
 trial-energy change:   -0.045215  1 .order   -0.044708   -0.081415   -0.008002
 step:   0.4587(harm=  0.4607)  dis= 0.01479  next Energy=   -61.603382 (dE=-0.456E-01)
 bond charge predicted
       N       E                     dE             d eps       ncg     rms          rms(c)
DAV:   1    -0.616035239705E+02   -0.58131E-03   -0.39621E-02   432   0.139E+00    0.700E-02
DAV:   2    -0.616034696978E+02    0.54273E-04   -0.11961E-03   512   0.242E-01    0.432E-02
DAV:   3    -0.616034205470E+02    0.49151E-04   -0.18739E-04   376   0.872E-02
  11 F= -.61603421E+02 E0= -.61602538E+02  d E =-.456702E-01
 curvature:  -0.26 expect dE=-0.205E-01 dE for cont linesearch -0.234E-05
 trial: gam= 0.40942 g(F)=  0.734E-01 g(S)=  0.442E-02 ort = 0.141E-02 (trialstep = 0.424E+00)
 search vector abs. value=  0.117E+00
 bond charge predicted
       N       E                     dE             d eps       ncg     rms          rms(c)
DAV:   1    -0.616251471702E+02   -0.21677E-01   -0.21399E+00   384   0.103E+01    0.404E-01
DAV:   2    -0.616259307441E+02   -0.78357E-03   -0.52842E-02   552   0.156E+00    0.267E-01
DAV:   3    -0.616242239399E+02    0.17068E-02   -0.46416E-03   520   0.456E-01    0.119E-01
DAV:   4    -0.616238889400E+02    0.33500E-03   -0.11345E-03   480   0.199E-01    0.434E-02
DAV:   5    -0.616238944925E+02   -0.55525E-05   -0.12403E-04   368   0.686E-02
  12 F= -.61623894E+02 E0= -.61623148E+02  d E =-.204739E-01
 trial-energy change:   -0.020474  1 .order   -0.020810   -0.033244   -0.008377
 step:   0.5669(harm=  0.5669)  dis= 0.01247  next Energy=   -61.625642 (dE=-0.222E-01)
 bond charge predicted
       N       E                     dE             d eps       ncg     rms          rms(c)
DAV:   1    -0.616254569885E+02   -0.15680E-02   -0.24398E-01   416   0.349E+00    0.136E-01
DAV:   2    -0.616255020190E+02   -0.45031E-04   -0.58403E-03   560   0.516E-01    0.890E-02
DAV:   3    -0.616253194220E+02    0.18260E-03   -0.52320E-04   512   0.150E-01    0.396E-02
DAV:   4    -0.616253157134E+02    0.37086E-05   -0.11154E-04   376   0.657E-02
  13 F= -.61625316E+02 E0= -.61624583E+02  d E =-.218952E-01
 curvature:  -0.42 expect dE=-0.332E-01 dE for cont linesearch -0.210E-07
 trial: gam= 0.99559 g(F)=  0.700E-01 g(S)=  0.870E-02 ort =-0.761E-04 (trialstep = 0.272E+00)
 search vector abs. value=  0.194E+00
 bond charge predicted
       N       E                     dE             d eps       ncg     rms          rms(c)
DAV:   1    -0.616444239155E+02   -0.19104E-01   -0.15359E+00   384   0.873E+00    0.311E-01
DAV:   2    -0.616447779041E+02   -0.35399E-03   -0.28493E-02   560   0.112E+00    0.190E-01
DAV:   3    -0.616439379320E+02    0.83997E-03   -0.28096E-03   496   0.340E-01    0.863E-02
DAV:   4    -0.616437890373E+02    0.14889E-03   -0.41711E-04   512   0.139E-01    0.325E-02
DAV:   5    -0.616437953312E+02   -0.62939E-05   -0.65754E-05   336   0.468E-02
  14 F= -.61643795E+02 E0= -.61643322E+02  d E =-.184796E-01
 trial-energy change:   -0.018480  1 .order   -0.018665   -0.021375   -0.015956
 step:   1.0724(harm=  1.0724)  dis= 0.03498  next Energy=   -61.667470 (dE=-0.422E-01)
 bond charge predicted
       N       E                     dE             d eps       ncg     rms          rms(c)
DAV:   1    -0.616724086090E+02   -0.28620E-01   -0.13310E+01   384   0.256E+01    0.937E-01
DAV:   2    -0.616749760540E+02   -0.25674E-02   -0.24979E-01   560   0.341E+00    0.560E-01
DAV:   3    -0.616680512527E+02    0.69248E-02   -0.24030E-02   504   0.104E+00    0.250E-01
DAV:   4    -0.616667860797E+02    0.12652E-02   -0.33706E-03   512   0.385E-01    0.962E-02
DAV:   5    -0.616666434674E+02    0.14261E-03   -0.62033E-04   448   0.134E-01    0.267E-02
DAV:   6    -0.616668425436E+02   -0.19908E-03   -0.79448E-05   344   0.616E-02    0.127E-02
DAV:   7    -0.616671006284E+02   -0.25808E-03   -0.87179E-05   344   0.456E-02    0.872E-03
DAV:   8    -0.616673383713E+02   -0.23774E-03   -0.77051E-05   344   0.338E-02    0.491E-03
DAV:   9    -0.616674323295E+02   -0.93958E-04   -0.27625E-05   360   0.199E-02
  15 F= -.61667432E+02 E0= -.61667301E+02  d E =-.421166E-01
 curvature:  -1.32 expect dE=-0.722E-01 dE for cont linesearch -0.508E-06
 trial: gam= 0.65941 g(F)=  0.395E-01 g(S)=  0.151E-01 ort =-0.273E-03 (trialstep = 0.432E+00)
 search vector abs. value=  0.139E+00
 bond charge predicted
       N       E                     dE             d eps       ncg     rms          rms(c)
DAV:   1    -0.616820040991E+02   -0.14666E-01   -0.29170E+00   384   0.115E+01    0.435E-01
DAV:   2    -0.616833322921E+02   -0.13282E-02   -0.60111E-02   520   0.160E+00    0.276E-01
DAV:   3    -0.616812266201E+02    0.21057E-02   -0.59342E-03   504   0.479E-01    0.124E-01
DAV:   4    -0.616807749424E+02    0.45168E-03   -0.11150E-03   504   0.196E-01    0.485E-02
DAV:   5    -0.616807210202E+02    0.53922E-04   -0.15991E-04   352   0.734E-02
  16 F= -.61680721E+02 E0= -.61680658E+02  d E =-.132887E-01
 trial-energy change:   -0.013289  1 .order   -0.013634   -0.023481   -0.003788
 step:   0.5151(harm=  0.5151)  dis= 0.01401  next Energy=   -61.681431 (dE=-0.140E-01)
 bond charge predicted
       N       E                     dE             d eps       ncg     rms          rms(c)
DAV:   1    -0.616811776442E+02   -0.40270E-03   -0.10859E-01   384   0.222E+00    0.840E-02
DAV:   2    -0.616812098818E+02   -0.32238E-04   -0.22734E-03   576   0.313E-01    0.544E-02
DAV:   3    -0.616811354773E+02    0.74405E-04   -0.21296E-04   376   0.946E-02
  17 F= -.61681135E+02 E0= -.61681075E+02  d E =-.137031E-01
 curvature:  -0.66 expect dE=-0.435E-01 dE for cont linesearch -0.128E-05
 trial: gam= 1.20538 g(F)=  0.421E-01 g(S)=  0.242E-01 ort = 0.519E-03 (trialstep = 0.231E+00)
 search vector abs. value=  0.269E+00
 bond charge predicted
       N       E                     dE             d eps       ncg     rms          rms(c)
DAV:   1    -0.616964924184E+02   -0.15283E-01   -0.13753E+00   384   0.761E+00    0.409E-01
DAV:   2    -0.616948058858E+02    0.16865E-02   -0.26831E-02   520   0.107E+00    0.241E-01
DAV:   3    -0.616927800426E+02    0.20258E-02   -0.37129E-03   496   0.370E-01    0.748E-02
DAV:   4    -0.616925975257E+02    0.18252E-03   -0.46834E-04   504   0.134E-01    0.283E-02
DAV:   5    -0.616926710509E+02   -0.73525E-04   -0.10679E-04   360   0.637E-02
  18 F= -.61692671E+02 E0= -.61692645E+02  d E =-.115356E-01
 trial-energy change:   -0.011536  1 .order   -0.012184   -0.015468   -0.008900
 step:   0.5446(harm=  0.5446)  dis= 0.01483  next Energy=   -61.699350 (dE=-0.182E-01)
 bond charge predicted
       N       E                     dE             d eps       ncg     rms          rms(c)
DAV:   1    -0.617050142767E+02   -0.12417E-01   -0.25239E+00   384   0.103E+01    0.547E-01
DAV:   2    -0.617021320805E+02    0.28822E-02   -0.49148E-02   520   0.145E+00    0.323E-01
DAV:   3    -0.616985534206E+02    0.35787E-02   -0.68738E-03   496   0.501E-01    0.993E-02
DAV:   4    -0.616982535411E+02    0.29988E-03   -0.81611E-04   504   0.178E-01    0.386E-02
DAV:   5    -0.616983599384E+02   -0.10640E-03   -0.20411E-04   384   0.862E-02    0.153E-02
DAV:   6    -0.616985272273E+02   -0.16729E-03   -0.55839E-05   360   0.473E-02    0.915E-03
DAV:   7    -0.616987437541E+02   -0.21653E-03   -0.66249E-05   352   0.369E-02    0.520E-03
DAV:   8    -0.616988747009E+02   -0.13095E-03   -0.44983E-05   360   0.281E-02    0.363E-03
DAV:   9    -0.616989292647E+02   -0.54564E-04   -0.16375E-05   344   0.167E-02
  19 F= -.61698929E+02 E0= -.61698918E+02  d E =-.177938E-01
 curvature:  -1.09 expect dE=-0.719E-01 dE for cont linesearch -0.130E-05
 trial: gam= 0.95705 g(F)=  0.267E-01 g(S)=  0.389E-01 ort = 0.565E-03 (trialstep = 0.252E+00)
 search vector abs. value=  0.313E+00
 bond charge predicted
       N       E                     dE             d eps       ncg     rms          rms(c)
DAV:   1    -0.617175645666E+02   -0.18690E-01   -0.19194E+00   384   0.861E+00    0.410E-01
DAV:   2    -0.617169634951E+02    0.60107E-03   -0.35634E-02   496   0.119E+00    0.237E-01
DAV:   3    -0.617151343744E+02    0.18291E-02   -0.30260E-03   472   0.332E-01    0.857E-02
DAV:   4    -0.617147631022E+02    0.37127E-03   -0.56613E-04   496   0.132E-01    0.231E-02
DAV:   5    -0.617148088309E+02   -0.45729E-04   -0.44341E-05   328   0.450E-02
  20 F= -.61714809E+02 E0= -.61714802E+02  d E =-.158796E-01
 ZBRENT: can't locate minimum, use default step
 trial-energy change:   -0.015880  1 .order   -0.016318   -0.016711   -0.015925
 step:   1.0099(harm=  5.3671)  dis= 0.02988  next Energy=   -61.876554 (dE=-0.178E+00)
 bond charge predicted
       N       E                     dE             d eps       ncg     rms          rms(c)
DAV:   1    -0.617776378870E+02   -0.62875E-01   -0.17281E+01   384   0.261E+01    0.123E+00
DAV:   2    -0.617721652269E+02    0.54727E-02   -0.32551E-01   512   0.371E+00    0.711E-01
DAV:   3    -0.617566626315E+02    0.15503E-01   -0.26205E-02   496   0.103E+00    0.246E-01
DAV:   4    -0.617543371301E+02    0.23255E-02   -0.45812E-03   528   0.379E-01    0.690E-02
DAV:   5    -0.617547771666E+02   -0.44004E-03   -0.50291E-04   480   0.136E-01    0.310E-02
DAV:   6    -0.617552259970E+02   -0.44883E-03   -0.17580E-04   376   0.735E-02    0.175E-02
DAV:   7    -0.617557855151E+02   -0.55952E-03   -0.27759E-04   392   0.689E-02    0.117E-02
DAV:   8    -0.617561041502E+02   -0.31864E-03   -0.17329E-04   336   0.494E-02    0.648E-03
DAV:   9    -0.617561761644E+02   -0.72014E-04   -0.31885E-05   360   0.253E-02
  21 F= -.61756176E+02 E0= -.61756174E+02  d E =-.572469E-01
 curvature:  -3.48 expect dE=-0.152E+00 dE for cont linesearch -0.247E-01
 ZBRENT: increasing intervall
 opt :   2.5246  next Energy=   -61.803500 (dE=-0.105E+00)
 bond charge predicted
       N       E                     dE             d eps       ncg     rms          rms(c)
DAV:   1    -0.618742205970E+02   -0.11812E+00   -0.70365E+01   384   0.546E+01    0.250E+00
DAV:   2    -0.618699318143E+02    0.42888E-02   -0.15157E+00   536   0.767E+00    0.144E+00
DAV:   3    -0.618106857685E+02    0.59246E-01   -0.10886E-01   592   0.202E+00    0.494E-01
DAV:   4    -0.618015993685E+02    0.90864E-02   -0.15500E-02   512   0.674E-01    0.135E-01
DAV:   5    -0.618022286118E+02   -0.62924E-03   -0.18169E-03   552   0.256E-01    0.640E-02
DAV:   6    -0.618031586327E+02   -0.93002E-03   -0.58973E-04   408   0.130E-01    0.331E-02
DAV:   7    -0.618041017276E+02   -0.94309E-03   -0.63528E-04   400   0.115E-01    0.217E-02
DAV:   8    -0.618046542706E+02   -0.55254E-03   -0.42976E-04   400   0.764E-02    0.120E-02
DAV:   9    -0.618048048836E+02   -0.15061E-03   -0.10543E-04   336   0.405E-02    0.643E-03
DAV:  10    -0.618048403872E+02   -0.35504E-04   -0.51471E-05   328   0.260E-02
  22 F= -.61804840E+02 E0= -.61804840E+02  d E =-.105911E+00
 curvature:  -6.66 expect dE=-0.648E+00 dE for cont linesearch -0.574E-02
 ZBRENT: increasing intervall
 opt :   5.5542  next Energy=   -61.761473 (dE=-0.625E-01)
 bond charge predicted
       N       E                     dE             d eps       ncg     rms          rms(c)
DAV:   1    -0.618163295644E+02   -0.11525E-01   -0.31607E+02   384   0.132E+02    0.524E+00
DAV:   2    -0.619922359709E+02   -0.17591E+00   -0.75469E+00   472   0.180E+01    0.292E+00
DAV:   3    -0.617775755764E+02    0.21466E+00   -0.37535E-01   600   0.391E+00    0.107E+00
DAV:   4    -0.617358359616E+02    0.41740E-01   -0.69789E-02   512   0.139E+00    0.259E-01
DAV:   5    -0.617355477380E+02    0.28822E-03   -0.61855E-03   568   0.490E-01    0.118E-01
DAV:   6    -0.617362925089E+02   -0.74477E-03   -0.25126E-03   512   0.276E-01    0.659E-02
DAV:   7    -0.617372381185E+02   -0.94561E-03   -0.17480E-03   472   0.202E-01    0.413E-02
DAV:   8    -0.617376710667E+02   -0.43295E-03   -0.99201E-04   440   0.122E-01    0.241E-02
DAV:   9    -0.617377123510E+02   -0.41284E-04   -0.30907E-04   400   0.603E-02
  23 F= -.61737712E+02 E0= -.61737712E+02  d E =-.387831E-01
 curvature:  50.33 expect dE= 0.335E+02 dE for cont linesearch  0.622E+00
 ZBRENT: bracketing found
 ZBRENT: interpolating
 opt :   3.1574  next Energy=   -61.810036 (dE=-0.111E+00)
 bond charge predicted
       N       E                     dE             d eps       ncg     rms          rms(c)
DAV:   1    -0.619874891204E+02   -0.24982E+00   -0.20744E+02   384   0.102E+02    0.418E+00
DAV:   2    -0.620440476009E+02   -0.56558E-01   -0.48672E+00   536   0.143E+01    0.242E+00
DAV:   3    -0.618626360530E+02    0.18141E+00   -0.29867E-01   520   0.338E+00    0.107E+00
DAV:   4    -0.618107039641E+02    0.51932E-01   -0.98881E-02   504   0.179E+00    0.279E-01
DAV:   5    -0.618055964301E+02    0.51075E-02   -0.75198E-03   536   0.581E-01    0.121E-01
DAV:   6    -0.618032478486E+02    0.23486E-02   -0.21999E-03   496   0.267E-01    0.609E-02
DAV:   7    -0.618029754039E+02    0.27244E-03   -0.77683E-04   536   0.131E-01    0.349E-02
DAV:   8    -0.618035256553E+02   -0.55025E-03   -0.54557E-04   408   0.943E-02    0.210E-02
DAV:   9    -0.618040060860E+02   -0.48043E-03   -0.80529E-05   344   0.499E-02    0.129E-02
DAV:  10    -0.618042780092E+02   -0.27192E-03   -0.92912E-05   320   0.382E-02    0.665E-03
DAV:  11    -0.618044960502E+02   -0.21804E-03   -0.61357E-05   352   0.322E-02    0.563E-03
DAV:  12    -0.618046650086E+02   -0.16896E-03   -0.13959E-05   368   0.167E-02    0.266E-03
DAV:  13    -0.618048244721E+02   -0.15946E-03   -0.15820E-05   344   0.127E-02    0.216E-03
DAV:  14    -0.618049136689E+02   -0.89197E-04   -0.95127E-06   352   0.914E-03
  24 F= -.61804914E+02 E0= -.61804914E+02  d E =-.105984E+00
 curvature:  -0.42 expect dE=-0.754E-01 dE for cont linesearch -0.269E-06
 trial: gam= 2.92493 g(F)=  0.165E+00 g(S)=  0.142E-01 ort = 0.448E-03 (trialstep = 0.912E-01)
 search vector abs. value=  0.286E+01
 bond charge predicted
       N       E                     dE             d eps       ncg     rms          rms(c)
DAV:   1    -0.618240979418E+02   -0.19273E-01   -0.23822E+00   384   0.951E+00    0.480E-01
DAV:   2    -0.618224542091E+02    0.16437E-02   -0.46248E-02   480   0.139E+00    0.277E-01
DAV:   3    -0.618197254214E+02    0.27288E-02   -0.56153E-03   512   0.469E-01    0.830E-02
DAV:   4    -0.618194505313E+02    0.27489E-03   -0.57815E-04   504   0.146E-01    0.296E-02
DAV:   5    -0.618195094063E+02   -0.58875E-04   -0.74889E-05   376   0.550E-02
  25 F= -.61819509E+02 E0= -.61819509E+02  d E =-.145957E-01
 ZBRENT: can't locate minimum, use default step
 trial-energy change:   -0.014596  1 .order   -0.015197   -0.016478   -0.013916
 step:   0.3649(harm=  0.5868)  dis= 0.02750  next Energy=   -61.857914 (dE=-0.530E-01)
 bond charge predicted
       N       E                     dE             d eps       ncg     rms          rms(c)
DAV:   1    -0.618835934354E+02   -0.64143E-01   -0.21444E+01   384   0.289E+01    0.144E+00
DAV:   2    -0.618692535695E+02    0.14340E-01   -0.42634E-01   520   0.436E+00    0.834E-01
DAV:   3    -0.618466271840E+02    0.22626E-01   -0.47577E-02   472   0.143E+00    0.248E-01
DAV:   4    -0.618446362987E+02    0.19909E-02   -0.51859E-03   544   0.439E-01    0.876E-02
DAV:   5    -0.618449725133E+02   -0.33621E-03   -0.85320E-04   480   0.169E-01    0.390E-02
DAV:   6    -0.618455410724E+02   -0.56856E-03   -0.23754E-04   360   0.882E-02    0.188E-02
DAV:   7    -0.618460619407E+02   -0.52087E-03   -0.25418E-04   400   0.703E-02    0.137E-02
DAV:   8    -0.618463953745E+02   -0.33343E-03   -0.15028E-04   344   0.496E-02    0.729E-03
DAV:   9    -0.618465246278E+02   -0.12925E-03   -0.82633E-05   328   0.345E-02    0.454E-03
DAV:  10    -0.618465565926E+02   -0.31965E-04   -0.22923E-05   352   0.206E-02
  26 F= -.61846557E+02 E0= -.61846556E+02  d E =-.416429E-01
 curvature:  -3.71 expect dE=-0.274E+00 dE for cont linesearch -0.276E-02
 ZBRENT: extrapolating
 opt :   0.4835  next Energy=   -61.849291 (dE=-0.444E-01)
 bond charge predicted
       N       E                     dE             d eps       ncg     rms          rms(c)
DAV:   1    -0.618572455400E+02   -0.10721E-01   -0.40302E+00   384   0.124E+01    0.629E-01
DAV:   2    -0.618543932949E+02    0.28522E-02   -0.79428E-02   488   0.183E+00    0.364E-01
DAV:   3    -0.618496730761E+02    0.47202E-02   -0.97286E-03   496   0.624E-01    0.109E-01
DAV:   4    -0.618491790558E+02    0.49402E-03   -0.96794E-04   512   0.190E-01    0.390E-02
DAV:   5    -0.618492314128E+02   -0.52357E-04   -0.14641E-04   360   0.752E-02
  27 F= -.61849231E+02 E0= -.61849231E+02  d E =-.443177E-01
 curvature:  -3.68 expect dE=-0.343E+00 dE for cont linesearch -0.797E-04
 trial: gam= 0.38685 g(F)=  0.743E-01 g(S)=  0.191E-01 ort = 0.787E-02 (trialstep = 0.170E+00)
 search vector abs. value=  0.527E+00
 bond charge predicted
       N       E                     dE             d eps       ncg     rms          rms(c)
DAV:   1    -0.618637002381E+02   -0.14521E-01   -0.17639E+00   384   0.833E+00    0.346E-01
DAV:   2    -0.618636019937E+02    0.98244E-04   -0.35458E-02   560   0.120E+00    0.213E-01
DAV:   3    -0.618620401693E+02    0.15618E-02   -0.33426E-03   496   0.380E-01    0.720E-02
DAV:   4    -0.618618885392E+02    0.15163E-03   -0.49844E-04   504   0.139E-01    0.265E-02
DAV:   5    -0.618619901079E+02   -0.10157E-03   -0.71666E-05   320   0.554E-02    0.117E-02
DAV:   6    -0.618621275711E+02   -0.13746E-03   -0.41325E-05   344   0.348E-02    0.634E-03
DAV:   7    -0.618622770679E+02   -0.14950E-03   -0.48819E-05   336   0.283E-02    0.440E-03
DAV:   8    -0.618623597960E+02   -0.82728E-04   -0.32972E-05   336   0.208E-02
  28 F= -.61862360E+02 E0= -.61862360E+02  d E =-.131284E-01
 trial-energy change:   -0.013128  1 .order   -0.012880   -0.016365   -0.009395
 step:   0.3984(harm=  0.3984)  dis= 0.01817  next Energy=   -61.868444 (dE=-0.192E-01)
 bond charge predicted
       N       E                     dE             d eps       ncg     rms          rms(c)
DAV:   1    -0.618715556323E+02   -0.92786E-02   -0.32069E+00   384   0.112E+01    0.470E-01
DAV:   2    -0.618716862372E+02   -0.13060E-03   -0.64444E-02   512   0.163E+00    0.289E-01
DAV:   3    -0.618689043903E+02    0.27818E-02   -0.60039E-03   504   0.519E-01    0.958E-02
DAV:   4    -0.618685230564E+02    0.38133E-03   -0.83542E-04   512   0.181E-01    0.339E-02
DAV:   5    -0.618685580249E+02   -0.34969E-04   -0.10187E-04   336   0.695E-02
  29 F= -.61868558E+02 E0= -.61868558E+02  d E =-.193266E-01
 curvature:  -1.09 expect dE=-0.775E-01 dE for cont linesearch -0.193E-04
 trial: gam= 0.74250 g(F)=  0.600E-01 g(S)=  0.111E-01 ort = 0.306E-02 (trialstep = 0.215E+00)
 search vector abs. value=  0.366E+00
 bond charge predicted
       N       E                     dE             d eps       ncg     rms          rms(c)
DAV:   1    -0.618857676335E+02   -0.17245E-01   -0.20292E+00   384   0.863E+00    0.395E-01
DAV:   2    -0.618839618083E+02    0.18058E-02   -0.39970E-02   552   0.125E+00    0.230E-01
DAV:   3    -0.618818287914E+02    0.21330E-02   -0.72942E-03   504   0.508E-01    0.725E-02
DAV:   4    -0.618817828485E+02    0.45943E-04   -0.46338E-04   472   0.141E-01
  30 F= -.61881783E+02 E0= -.61881783E+02  d E =-.132248E-01
 ZBRENT: can't locate minimum, use default step
 trial-energy change:   -0.013225  1 .order   -0.013976   -0.015809   -0.012143
 step:   0.8617(harm=  0.9288)  dis= 0.02727  next Energy=   -61.902641 (dE=-0.341E-01)
 bond charge predicted
       N       E                     dE             d eps       ncg     rms          rms(c)
DAV:   1    -0.619299122449E+02   -0.48083E-01   -0.18237E+01   384   0.260E+01    0.121E+00
DAV:   2    -0.619144187385E+02    0.15494E-01   -0.36893E-01   552   0.397E+00    0.700E-01
DAV:   3    -0.618967582308E+02    0.17661E-01   -0.63475E-02   528   0.156E+00    0.219E-01
DAV:   4    -0.618959887344E+02    0.76950E-03   -0.40900E-03   488   0.415E-01    0.106E-01
DAV:   5    -0.618960522030E+02   -0.63469E-04   -0.12765E-03   456   0.189E-01    0.366E-02
DAV:   6    -0.618964534919E+02   -0.40129E-03   -0.22156E-04   368   0.895E-02    0.181E-02
DAV:   7    -0.618969180937E+02   -0.46460E-03   -0.27796E-04   384   0.739E-02    0.162E-02
DAV:   8    -0.618972205925E+02   -0.30250E-03   -0.15173E-04   352   0.537E-02    0.727E-03
DAV:   9    -0.618973199650E+02   -0.99373E-04   -0.76760E-05   376   0.364E-02
  31 F= -.61897320E+02 E0= -.61897320E+02  d E =-.287619E-01
 curvature:  -2.30 expect dE=-0.229E+00 dE for cont linesearch -0.213E-03
 trial: gam= 1.50716 g(F)=  0.937E-01 g(S)=  0.615E-02 ort =-0.582E-02 (trialstep = 0.138E+00)
 search vector abs. value=  0.915E+00
 bond charge predicted
       N       E                     dE             d eps       ncg     rms          rms(c)
DAV:   1    -0.619106459811E+02   -0.13425E-01   -0.21647E+00   400   0.861E+00    0.381E-01
DAV:   2    -0.619098214168E+02    0.82456E-03   -0.42754E-02   504   0.126E+00    0.226E-01
DAV:   3    -0.619077212231E+02    0.21002E-02   -0.57387E-03   512   0.469E-01    0.576E-02
DAV:   4    -0.619075909271E+02    0.13030E-03   -0.30107E-04   448   0.116E-01    0.267E-02
DAV:   5    -0.619076002673E+02   -0.93402E-05   -0.84956E-05   352   0.574E-02
  32 F= -.61907600E+02 E0= -.61907600E+02  d E =-.102803E-01
 trial-energy change:   -0.010280  1 .order   -0.010628   -0.012573   -0.008684
 step:   0.4465(harm=  0.4465)  dis= 0.02327  next Energy=   -61.917647 (dE=-0.203E-01)
 bond charge predicted
       N       E                     dE             d eps       ncg     rms          rms(c)
DAV:   1    -0.619298983298E+02   -0.22307E-01   -0.10777E+01   384   0.192E+01    0.861E-01
DAV:   2    -0.619250866549E+02    0.48117E-02   -0.21648E-01   536   0.297E+00    0.514E-01
DAV:   3    -0.619149361077E+02    0.10151E-01   -0.29002E-02   528   0.111E+00    0.128E-01
DAV:   4    -0.619146032649E+02    0.33284E-03   -0.16002E-03   536   0.253E-01    0.616E-02
DAV:   5    -0.619148294708E+02   -0.22621E-03   -0.41216E-04   384   0.120E-01    0.210E-02
DAV:   6    -0.619151373531E+02   -0.30788E-03   -0.11329E-04   328   0.617E-02    0.124E-02
DAV:   7    -0.619155243756E+02   -0.38702E-03   -0.20744E-04   376   0.560E-02    0.914E-03
DAV:   8    -0.619156685333E+02   -0.14416E-03   -0.63754E-05   368   0.349E-02    0.470E-03
DAV:   9    -0.619157153888E+02   -0.46855E-04   -0.26898E-05   360   0.200E-02
  33 F= -.61915715E+02 E0= -.61915715E+02  d E =-.183954E-01
 curvature:  -2.24 expect dE=-0.153E+00 dE for cont linesearch -0.238E-03
 trial: gam= 0.62306 g(F)=  0.610E-01 g(S)=  0.699E-02 ort =-0.986E-02 (trialstep = 0.200E+00)
 search vector abs. value=  0.411E+00
 bond charge predicted
       N       E                     dE             d eps       ncg     rms          rms(c)
DAV:   1    -0.619308847958E+02   -0.15216E-01   -0.21072E+00   392   0.800E+00    0.411E-01
DAV:   2    -0.619286735863E+02    0.22112E-02   -0.43814E-02   448   0.130E+00    0.237E-01
DAV:   3    -0.619262666063E+02    0.24070E-02   -0.93079E-03   512   0.564E-01    0.728E-02
DAV:   4    -0.619261878406E+02    0.78766E-04   -0.80300E-04   496   0.179E-01
  34 F= -.61926188E+02 E0= -.61926188E+02  d E =-.104725E-01
 ZBRENT: can't locate minimum, use default step
 trial-energy change:   -0.010472  1 .order   -0.011189   -0.012359   -0.010019
 step:   0.7991(harm=  1.0552)  dis= 0.02936  next Energy=   -61.948358 (dE=-0.326E-01)
 bond charge predicted
       N       E                     dE             d eps       ncg     rms          rms(c)
DAV:   1    -0.619785257344E+02   -0.52259E-01   -0.18958E+01   384   0.242E+01    0.125E+00
DAV:   2    -0.619578644299E+02    0.20661E-01   -0.40515E-01   488   0.412E+00    0.720E-01
DAV:   3    -0.619378791042E+02    0.19985E-01   -0.82133E-02   576   0.171E+00    0.222E-01
DAV:   4    -0.619373766655E+02    0.50244E-03   -0.70195E-03   480   0.503E-01    0.113E-01
DAV:   5    -0.619373163328E+02    0.60333E-04   -0.11418E-03   456   0.185E-01    0.393E-02
DAV:   6    -0.619377359097E+02   -0.41958E-03   -0.21415E-04   320   0.849E-02    0.196E-02
DAV:   7    -0.619382131886E+02   -0.47728E-03   -0.24360E-04   384   0.707E-02    0.155E-02
DAV:   8    -0.619385873437E+02   -0.37416E-03   -0.23127E-04   384   0.546E-02    0.709E-03
DAV:   9    -0.619386596142E+02   -0.72271E-04   -0.46254E-05   376   0.255E-02
  35 F= -.61938660E+02 E0= -.61938660E+02  d E =-.229442E-01
 curvature:  -3.19 expect dE=-0.198E+00 dE for cont linesearch -0.107E-03
 trial: gam= 0.87771 g(F)=  0.413E-01 g(S)=  0.207E-01 ort =-0.372E-02 (trialstep = 0.320E+00)
 search vector abs. value=  0.372E+00
 bond charge predicted
       N       E                     dE             d eps       ncg     rms          rms(c)
DAV:   1    -0.619643374953E+02   -0.25750E-01   -0.48453E+00   424   0.118E+01    0.664E-01
DAV:   2    -0.619593507096E+02    0.49868E-02   -0.10893E-01   448   0.199E+00    0.390E-01
DAV:   3    -0.619539578018E+02    0.53929E-02   -0.25412E-02   528   0.982E-01    0.979E-02
DAV:   4    -0.619538936723E+02    0.64130E-04   -0.20651E-03   496   0.291E-01    0.535E-02
DAV:   5    -0.619538675459E+02    0.26126E-04   -0.24229E-04   352   0.999E-02
  36 F= -.61953868E+02 E0= -.61953868E+02  d E =-.152079E-01
 trial-energy change:   -0.015208  1 .order   -0.015830   -0.018786   -0.012874
 step:   1.0157(harm=  1.0157)  dis= 0.03723  next Energy=   -61.968509 (dE=-0.298E-01)
 bond charge predicted
       N       E                     dE             d eps       ncg     rms          rms(c)
DAV:   1    -0.620157628069E+02   -0.61869E-01   -0.22924E+01   416   0.258E+01    0.146E+00
DAV:   2    -0.619911614165E+02    0.24601E-01   -0.52904E-01   472   0.479E+00    0.879E-01
DAV:   3    -0.619658155025E+02    0.25346E-01   -0.11993E-01   528   0.230E+00    0.210E-01
DAV:   4    -0.619655250857E+02    0.29042E-03   -0.94539E-03   488   0.667E-01    0.119E-01
DAV:   5    -0.619655509910E+02   -0.25905E-04   -0.13777E-03   456   0.215E-01    0.422E-02
DAV:   6    -0.619658881376E+02   -0.33715E-03   -0.31622E-04   360   0.997E-02    0.201E-02
DAV:   7    -0.619663473845E+02   -0.45925E-03   -0.25639E-04   360   0.793E-02    0.167E-02
DAV:   8    -0.619666931009E+02   -0.34572E-03   -0.27423E-04   376   0.789E-02    0.109E-02
DAV:   9    -0.619667486950E+02   -0.55594E-04   -0.64195E-05   376   0.405E-02
  37 F= -.61966749E+02 E0= -.61966749E+02  d E =-.280891E-01
 curvature:  -3.21 expect dE=-0.256E+00 dE for cont linesearch -0.851E-04
 trial: gam= 1.33452 g(F)=  0.697E-01 g(S)=  0.991E-02 ort =-0.314E-02 (trialstep = 0.233E+00)
 search vector abs. value=  0.734E+00
 bond charge predicted
       N       E                     dE             d eps       ncg     rms          rms(c)
DAV:   1    -0.619927953187E+02   -0.26102E-01   -0.53559E+00   400   0.131E+01    0.712E-01
DAV:   2    -0.619848810072E+02    0.79143E-02   -0.12219E-01   464   0.227E+00    0.411E-01
DAV:   3    -0.619785368715E+02    0.63441E-02   -0.30831E-02   528   0.105E+00    0.132E-01
DAV:   4    -0.619784519785E+02    0.84893E-04   -0.26758E-03   520   0.315E-01    0.743E-02
DAV:   5    -0.619783646100E+02    0.87368E-04   -0.32554E-04   400   0.113E-01
  38 F= -.61978365E+02 E0= -.61978365E+02  d E =-.116159E-01
 trial-energy change:   -0.011616  1 .order   -0.012620   -0.017543   -0.007698
 step:   0.4145(harm=  0.4145)  dis= 0.02174  next Energy=   -61.982378 (dE=-0.156E-01)
 bond charge predicted
       N       E                     dE             d eps       ncg     rms          rms(c)
DAV:   1    -0.619891470104E+02   -0.10695E-01   -0.32799E+00   400   0.103E+01    0.557E-01
DAV:   2    -0.619838728623E+02    0.52741E-02   -0.74705E-02   480   0.174E+00    0.320E-01
DAV:   3    -0.619798898609E+02    0.39830E-02   -0.19073E-02   528   0.814E-01    0.104E-01
DAV:   4    -0.619799486965E+02   -0.58836E-04   -0.16893E-03   512   0.248E-01    0.577E-02
DAV:   5    -0.619800034173E+02   -0.54721E-04   -0.22328E-04   320   0.937E-02
  39 F= -.61980003E+02 E0= -.61980003E+02  d E =-.132547E-01
 curvature:  -2.02 expect dE=-0.112E+00 dE for cont linesearch -0.507E-04
 trial: gam= 0.78546 g(F)=  0.518E-01 g(S)=  0.374E-02 ort =-0.429E-02 (trialstep = 0.269E+00)
 search vector abs. value=  0.501E+00
 bond charge predicted
       N       E                     dE             d eps       ncg     rms          rms(c)
DAV:   1    -0.619998071709E+02   -0.19858E-01   -0.46681E+00   384   0.122E+01    0.629E-01
DAV:   2    -0.619945404063E+02    0.52668E-02   -0.10089E-01   512   0.200E+00    0.370E-01
DAV:   3    -0.619888445074E+02    0.56959E-02   -0.21988E-02   528   0.903E-01    0.858E-02
DAV:   4    -0.619889448524E+02   -0.10035E-03   -0.10640E-03   488   0.222E-01    0.488E-02
DAV:   5    -0.619890966291E+02   -0.15178E-03   -0.24230E-04   304   0.901E-02    0.145E-02
DAV:   6    -0.619892699773E+02   -0.17335E-03   -0.61977E-05   368   0.504E-02    0.919E-03
DAV:   7    -0.619895171249E+02   -0.24715E-03   -0.13706E-04   312   0.508E-02    0.829E-03
DAV:   8    -0.619895973777E+02   -0.80253E-04   -0.51098E-05   376   0.324E-02
  40 F= -.61989597E+02 E0= -.61989597E+02  d E =-.959396E-02
 trial-energy change:   -0.009594  1 .order   -0.009695   -0.014031   -0.005358
 step:   0.4352(harm=  0.4352)  dis= 0.01937  next Energy=   -61.991354 (dE=-0.114E-01)
 bond charge predicted
       N       E                     dE             d eps       ncg     rms          rms(c)
DAV:   1    -0.619954089339E+02   -0.58918E-02   -0.17937E+00   392   0.759E+00    0.394E-01
DAV:   2    -0.619934620630E+02    0.19469E-02   -0.38616E-02   464   0.120E+00    0.229E-01
DAV:   3    -0.619912263277E+02    0.22357E-02   -0.84443E-03   528   0.543E-01    0.531E-02
DAV:   4    -0.619912187921E+02    0.75357E-05   -0.39091E-04   440   0.134E-01
  41 F= -.61991219E+02 E0= -.61991219E+02  d E =-.112154E-01
 curvature:  -2.09 expect dE=-0.492E-01 dE for cont linesearch -0.823E-04
 trial: gam= 0.18578 g(F)=  0.188E-01 g(S)=  0.476E-02 ort = 0.444E-02 (trialstep = 0.302E+00)
 search vector abs. value=  0.425E-01
 bond charge predicted
       N       E                     dE             d eps       ncg     rms          rms(c)
DAV:   1    -0.619966555220E+02   -0.54292E-02   -0.48846E-01   384   0.459E+00    0.194E-01
DAV:   2    -0.619964207415E+02    0.23478E-03   -0.11396E-02   512   0.729E-01    0.122E-01
DAV:   3    -0.619958156705E+02    0.60507E-03   -0.19149E-03   512   0.275E-01    0.378E-02
DAV:   4    -0.619958078277E+02    0.78428E-05   -0.25828E-04   384   0.102E-01
  42 F= -.61995808E+02 E0= -.61995808E+02  d E =-.458904E-02
 trial-energy change:   -0.004589  1 .order   -0.004869   -0.007365   -0.002373
 step:   0.4460(harm=  0.4460)  dis= 0.00731  next Energy=   -61.996652 (dE=-0.543E-02)
 bond charge predicted
       N       E                     dE             d eps       ncg     rms          rms(c)
DAV:   1    -0.619965343168E+02   -0.71865E-03   -0.11103E-01   384   0.219E+00    0.925E-02
DAV:   2    -0.619964968160E+02    0.37501E-04   -0.27043E-03   512   0.355E-01    0.590E-02
DAV:   3    -0.619963708977E+02    0.12592E-03   -0.44345E-04   480   0.134E-01    0.195E-02
DAV:   4    -0.619963854240E+02   -0.14526E-04   -0.70359E-05   288   0.555E-02
  43 F= -.61996385E+02 E0= -.61996385E+02  d E =-.516663E-02
 curvature:  -0.39 expect dE=-0.725E-02 dE for cont linesearch -0.124E-06
 trial: gam= 0.83546 g(F)=  0.171E-01 g(S)=  0.152E-02 ort =-0.116E-03 (trialstep = 0.292E+00)
 search vector abs. value=  0.481E-01
 bond charge predicted
       N       E                     dE             d eps       ncg     rms          rms(c)
DAV:   1    -0.620015018823E+02   -0.51310E-02   -0.46731E-01   384   0.436E+00    0.190E-01
DAV:   2    -0.620011113924E+02    0.39049E-03   -0.88163E-03   536   0.619E-01    0.112E-01
DAV:   3    -0.620006181800E+02    0.49321E-03   -0.13809E-03   528   0.221E-01    0.357E-02
DAV:   4    -0.620006016113E+02    0.16569E-04   -0.12518E-04   336   0.727E-02
  44 F= -.62000602E+02 E0= -.62000602E+02  d E =-.421619E-02
 trial-energy change:   -0.004216  1 .order   -0.004381   -0.005421   -0.003342
 step:   0.7624(harm=  0.7624)  dis= 0.01295  next Energy=   -62.003452 (dE=-0.707E-02)
 bond charge predicted
       N       E                     dE             d eps       ncg     rms          rms(c)
DAV:   1    -0.620052436610E+02   -0.46255E-02   -0.12077E+00   384   0.700E+00    0.308E-01
DAV:   2    -0.620042251732E+02    0.10185E-02   -0.22960E-02   544   0.100E+00    0.181E-01
DAV:   3    -0.620029686409E+02    0.12565E-02   -0.36039E-03   512   0.357E-01    0.581E-02
DAV:   4    -0.620029102145E+02    0.58426E-04   -0.35150E-04   424   0.118E-01
  45 F= -.62002910E+02 E0= -.62002910E+02  d E =-.652479E-02
 curvature:  -0.99 expect dE=-0.179E-01 dE for cont linesearch -0.484E-05
 trial: gam= 0.96411 g(F)=  0.115E-01 g(S)=  0.662E-02 ort = 0.485E-03 (trialstep = 0.292E+00)
 search vector abs. value=  0.637E-01
 bond charge predicted
       N       E                     dE             d eps       ncg     rms          rms(c)
DAV:   1    -0.620070362718E+02   -0.40676E-02   -0.59907E-01   384   0.504E+00    0.214E-01
DAV:   2    -0.620069304523E+02    0.10582E-03   -0.11900E-02   576   0.671E-01    0.133E-01
DAV:   3    -0.620063846564E+02    0.54580E-03   -0.14842E-03   520   0.263E-01    0.286E-02
DAV:   4    -0.620064088871E+02   -0.24231E-04   -0.84499E-05   312   0.634E-02
  46 F= -.62006409E+02 E0= -.62006409E+02  d E =-.349867E-02
 trial-energy change:   -0.003499  1 .order   -0.003555   -0.005410   -0.001700
 step:   0.4254(harm=  0.4254)  dis= 0.00802  next Energy=   -62.006855 (dE=-0.394E-02)
 bond charge predicted
       N       E                     dE             d eps       ncg     rms          rms(c)
DAV:   1    -0.620070772574E+02   -0.69260E-03   -0.12689E-01   384   0.233E+00    0.991E-02
DAV:   2    -0.620070546500E+02    0.22607E-04   -0.25522E-03   544   0.310E-01    0.614E-02
DAV:   3    -0.620069532666E+02    0.10138E-03   -0.32369E-04   384   0.122E-01    0.134E-02
DAV:   4    -0.620069756240E+02   -0.22357E-04   -0.26743E-05   320   0.379E-02
  47 F= -.62006976E+02 E0= -.62006976E+02  d E =-.406541E-02
 curvature:  -0.73 expect dE=-0.858E-02 dE for cont linesearch -0.654E-05
 trial: gam= 0.60368 g(F)=  0.112E-01 g(S)=  0.590E-03 ort = 0.755E-03 (trialstep = 0.318E+00)
 search vector abs. value=  0.359E-01
 bond charge predicted
       N       E                     dE             d eps       ncg     rms          rms(c)
DAV:   1    -0.620101200703E+02   -0.31668E-02   -0.41489E-01   384   0.427E+00    0.202E-01
DAV:   2    -0.620095919495E+02    0.52812E-03   -0.94252E-03   480   0.652E-01    0.119E-01
DAV:   3    -0.620091258736E+02    0.46608E-03   -0.26104E-03   512   0.307E-01    0.396E-02
DAV:   4    -0.620091117179E+02    0.14156E-04   -0.30944E-04   416   0.107E-01
  48 F= -.62009112E+02 E0= -.62009112E+02  d E =-.213609E-02
 trial-energy change:   -0.002136  1 .order   -0.002175   -0.003885   -0.000464
 step:   0.3616(harm=  0.3616)  dis= 0.00438  next Energy=   -62.009182 (dE=-0.221E-02)
 bond charge predicted
       N       E                     dE             d eps       ncg     rms          rms(c)
DAV:   1    -0.620091748765E+02   -0.49003E-04   -0.77355E-03   464   0.583E-01    0.298E-02
DAV:   2    -0.620091659650E+02    0.89114E-05   -0.18550E-04   424   0.946E-02
  49 F= -.62009166E+02 E0= -.62009166E+02  d E =-.219034E-02
 curvature:  -0.53 expect dE=-0.167E-02 dE for cont linesearch -0.578E-05
 trial: gam= 0.32209 g(F)=  0.222E-02 g(S)=  0.919E-03 ort = 0.625E-03 (trialstep = 0.327E+00)
 search vector abs. value=  0.727E-02
 bond charge predicted
       N       E                     dE             d eps       ncg     rms          rms(c)
DAV:   1    -0.620103163551E+02   -0.11415E-02   -0.71300E-02   384   0.172E+00    0.100E-01
DAV:   2    -0.620100812597E+02    0.23510E-03   -0.14419E-03   480   0.246E-01    0.571E-02
DAV:   3    -0.620099149225E+02    0.16634E-03   -0.42400E-04   488   0.118E-01    0.139E-02
DAV:   4    -0.620099235178E+02   -0.85953E-05   -0.22061E-05   328   0.354E-02
  50 F= -.62009924E+02 E0= -.62009924E+02  d E =-.757553E-03
 trial-energy change:   -0.000758  1 .order   -0.000855   -0.001093   -0.000617
 step:   0.7517(harm=  0.7517)  dis= 0.00409  next Energy=   -62.010422 (dE=-0.126E-02)
 bond charge predicted
       N       E                     dE             d eps       ncg     rms          rms(c)
DAV:   1    -0.620109993005E+02   -0.10844E-02   -0.12121E-01   384   0.224E+00    0.129E-01
DAV:   2    -0.620106058411E+02    0.39346E-03   -0.24420E-03   496   0.323E-01    0.732E-02
DAV:   3    -0.620103347785E+02    0.27106E-03   -0.76753E-04   512   0.156E-01    0.194E-02
DAV:   4    -0.620103403666E+02   -0.55882E-05   -0.35136E-05   336   0.423E-02
  51 F= -.62010340E+02 E0= -.62010340E+02  d E =-.117440E-02
 curvature:  -0.82 expect dE=-0.170E-02 dE for cont linesearch -0.218E-04
 trial: gam= 0.44783 g(F)=  0.156E-02 g(S)=  0.525E-03 ort = 0.440E-03 (trialstep = 0.412E+00)
 search vector abs. value=  0.393E-02
 bond charge predicted
       N       E                     dE             d eps       ncg     rms          rms(c)
DAV:   1    -0.620113495625E+02   -0.10148E-02   -0.62214E-02   384   0.163E+00    0.947E-02
DAV:   2    -0.620111193594E+02    0.23020E-03   -0.13661E-03   448   0.246E-01    0.536E-02
DAV:   3    -0.620109615795E+02    0.15778E-03   -0.30666E-04   448   0.964E-02    0.149E-02
DAV:   4    -0.620109645667E+02   -0.29872E-05   -0.32290E-05   312   0.411E-02
  52 F= -.62010965E+02 E0= -.62010965E+02  d E =-.624200E-03
 trial-energy change:   -0.000624  1 .order   -0.000685   -0.000939   -0.000432
 step:   0.7623(harm=  0.7623)  dis= 0.00328  next Energy=   -62.011209 (dE=-0.869E-03)
 bond charge predicted
       N       E                     dE             d eps       ncg     rms          rms(c)
DAV:   1    -0.620114044705E+02   -0.44289E-03   -0.45246E-02   384   0.139E+00    0.798E-02
DAV:   2    -0.620112419591E+02    0.16251E-03   -0.10072E-03   464   0.211E-01    0.452E-02
DAV:   3    -0.620111295787E+02    0.11238E-03   -0.20908E-04   360   0.822E-02    0.126E-02
DAV:   4    -0.620111334097E+02   -0.38311E-05   -0.30444E-05   296   0.407E-02
  53 F= -.62011133E+02 E0= -.62011133E+02  d E =-.793043E-03
 curvature:  -0.66 expect dE=-0.147E-02 dE for cont linesearch -0.677E-06
 trial: gam= 1.17361 g(F)=  0.165E-02 g(S)=  0.580E-03 ort = 0.636E-04 (trialstep = 0.243E+00)
 search vector abs. value=  0.780E-02
 reached required accuracy - stopping structural energy minimisation
 writing wavefunctions
Sun Mar  6 19:46:40 CST 2022
