Sun Mar  6 19:51:02 CST 2022
 running on   48 total cores
 distrk:  each k-point on   48 cores,    1 groups
 distr:  one band on   24 cores,    2 groups
 using from now: INCAR     
 vasp.5.3.5 31Mar14 (build Jan 11 2016 19:50:55) complex                        
  
 POSCAR found type information on POSCAR  B  C  Na
 POSCAR found :  3 types and       9 ions
 scaLAPACK will be used

 ----------------------------------------------------------------------------- 
|                                                                             |
|           W    W    AA    RRRRR   N    N  II  N    N   GGGG   !!!           |
|           W    W   A  A   R    R  NN   N  II  NN   N  G    G  !!!           |
|           W    W  A    A  R    R  N N  N  II  N N  N  G       !!!           |
|           W WW W  AAAAAA  RRRRR   N  N N  II  N  N N  G  GGG   !            |
|           WW  WW  A    A  R   R   N   NN  II  N   NN  G    G                |
|           W    W  A    A  R    R  N    N  II  N    N   GGGG   !!!           |
|                                                                             |
|      For optimal performance we recommend to set                            |
|        NCORE= 4 - approx SQRT( number of cores)                             |
|      NCORE specifies how many cores store one orbital (NPAR=cpu/NCORE).     |
|      This setting can  greatly improve the performance of VASP for DFT.     |
|      The default, NPAR=number of cores might be grossly inefficient         |
|      on modern multi-core architectures or massively parallel machines.     |
|      Do your own testing !!!!                                               |
|      Unfortunately you need to use the default for GW and RPA calculations. |
|      (for HF NCORE is supported but not extensively tested yet)             |
|                                                                             |
 ----------------------------------------------------------------------------- 

 LDA part: xc-table for Pade appr. of Perdew
 POSCAR, INCAR and KPOINTS ok, starting setup
 WARNING: small aliasing (wrap around) errors must be expected
 FFT: planning ...
 WAVECAR not read
 entering main loop
       N       E                     dE             d eps       ncg     rms          rms(c)
DAV:   1     0.269058615079E+03    0.26906E+03   -0.11673E+04   472   0.828E+02
DAV:   2    -0.255503937928E+01   -0.27161E+03   -0.26250E+03   576   0.225E+02
DAV:   3    -0.650650466941E+02   -0.62510E+02   -0.62155E+02   480   0.107E+02
DAV:   4    -0.683295148905E+02   -0.32645E+01   -0.32376E+01   528   0.328E+01
DAV:   5    -0.684230028142E+02   -0.93488E-01   -0.93238E-01   536   0.507E+00    0.133E+01
DAV:   6    -0.616391821739E+02    0.67838E+01   -0.16559E+01   472   0.267E+01    0.689E+00
DAV:   7    -0.600521768646E+02    0.15870E+01   -0.53042E+00   552   0.117E+01    0.350E+00
DAV:   8    -0.596716994736E+02    0.38048E+00   -0.10655E+00   568   0.499E+00    0.146E+00
DAV:   9    -0.595489828588E+02    0.12272E+00   -0.15469E-01   560   0.196E+00    0.528E-01
DAV:  10    -0.595064658066E+02    0.42517E-01   -0.42192E-02   512   0.985E-01    0.280E-01
DAV:  11    -0.594842900717E+02    0.22176E-01   -0.17863E-02   528   0.599E-01    0.178E-01
DAV:  12    -0.594757337930E+02    0.85563E-02   -0.20424E-02   512   0.528E-01    0.111E-01
DAV:  13    -0.594793143385E+02   -0.35805E-02   -0.19661E-03   448   0.269E-01    0.638E-02
DAV:  14    -0.594820731100E+02   -0.27588E-02   -0.18293E-03   400   0.129E-01    0.428E-02
DAV:  15    -0.594859334800E+02   -0.38604E-02   -0.14433E-03   336   0.129E-01    0.306E-02
DAV:  16    -0.594883841286E+02   -0.24506E-02   -0.12457E-03   336   0.757E-02    0.162E-02
DAV:  17    -0.594891824875E+02   -0.79836E-03   -0.24318E-04   336   0.557E-02    0.909E-03
DAV:  18    -0.594897032523E+02   -0.52076E-03   -0.15838E-04   320   0.340E-02    0.511E-03
DAV:  19    -0.594898749657E+02   -0.17171E-03   -0.46416E-05   288   0.234E-02    0.237E-03
DAV:  20    -0.594899281535E+02   -0.53188E-04   -0.12706E-05   304   0.119E-02
   1 F= -.59489928E+02 E0= -.59478602E+02  d E =-.594899E+02
 curvature:   0.00 expect dE= 0.000E+00 dE for cont linesearch  0.000E+00
 trial: gam= 0.00000 g(F)=  0.129E+01 g(S)=  0.292E+00 ort = 0.000E+00 (trialstep = 0.100E+01)
 search vector abs. value=  0.158E+01
 bond charge predicted
       N       E                     dE             d eps       ncg     rms          rms(c)
DAV:   1    -0.585564430571E+02    0.93343E+00   -0.22265E+02   416   0.119E+02    0.425E+00
DAV:   2    -0.590010376852E+02   -0.44459E+00   -0.78903E+00   480   0.186E+01    0.271E+00
DAV:   3    -0.588903853207E+02    0.11065E+00   -0.35146E-01   592   0.400E+00    0.176E+00
DAV:   4    -0.588383784616E+02    0.52007E-01   -0.13052E-01   512   0.249E+00    0.338E-01
DAV:   5    -0.588379350425E+02    0.44342E-03   -0.20377E-02   576   0.843E-01    0.137E-01
DAV:   6    -0.588376942794E+02    0.24076E-03   -0.13550E-03   512   0.251E-01    0.716E-02
DAV:   7    -0.588377650840E+02   -0.70805E-04   -0.34234E-04   400   0.120E-01
   2 F= -.58837765E+02 E0= -.58810717E+02  d E =0.652163E+00
 trial-energy change:    0.652163  1 .order    0.483590   -1.578576    2.545757
 step:   0.3286(harm=  0.3827)  dis= 0.04657  next Energy=   -59.743336 (dE=-0.253E+00)
 bond charge predicted
       N       E                     dE             d eps       ncg     rms          rms(c)
DAV:   1    -0.597455118114E+02   -0.90782E+00   -0.89783E+01   384   0.634E+01    0.304E+00
DAV:   2    -0.598189634480E+02   -0.73452E-01   -0.26653E+00   544   0.109E+01    0.172E+00
DAV:   3    -0.597497350298E+02    0.69228E-01   -0.21637E-01   576   0.333E+00    0.718E-01
DAV:   4    -0.597419758817E+02    0.77591E-02   -0.47966E-02   512   0.134E+00    0.250E-01
DAV:   5    -0.597418147192E+02    0.16116E-03   -0.48015E-03   512   0.429E-01    0.119E-01
DAV:   6    -0.597419319875E+02   -0.11727E-03   -0.47024E-04   512   0.130E-01    0.409E-02
DAV:   7    -0.597421141956E+02   -0.18221E-03   -0.97289E-05   360   0.601E-02    0.142E-02
DAV:   8    -0.597422869556E+02   -0.17276E-03   -0.55862E-05   352   0.386E-02    0.758E-03
DAV:   9    -0.597424418441E+02   -0.15489E-03   -0.39439E-05   352   0.288E-02    0.377E-03
DAV:  10    -0.597425356199E+02   -0.93776E-04   -0.30759E-05   352   0.185E-02
   3 F= -.59742536E+02 E0= -.59730519E+02  d E =-.252607E+00
 curvature:  -0.19 expect dE=-0.163E+00 dE for cont linesearch -0.320E-03
 trial: gam= 0.57712 g(F)=  0.815E+00 g(S)=  0.442E-01 ort =-0.516E-01 (trialstep = 0.866E+00)
 search vector abs. value=  0.133E+01
 bond charge predicted
       N       E                     dE             d eps       ncg     rms          rms(c)
DAV:   1    -0.596775174759E+02    0.64924E-01   -0.15252E+02   448   0.918E+01    0.286E+00
DAV:   2    -0.598909756529E+02   -0.21346E+00   -0.45123E+00   496   0.134E+01    0.166E+00
DAV:   3    -0.598256017163E+02    0.65374E-01   -0.31527E-01   576   0.336E+00    0.691E-01
DAV:   4    -0.598165229445E+02    0.90788E-02   -0.25093E-02   480   0.110E+00    0.278E-01
DAV:   5    -0.598151998280E+02    0.13231E-02   -0.44884E-03   512   0.387E-01    0.785E-02
DAV:   6    -0.598150696285E+02    0.13020E-03   -0.49659E-04   448   0.135E-01    0.379E-02
DAV:   7    -0.598151297459E+02   -0.60117E-04   -0.14855E-04   384   0.769E-02
   4 F= -.59815130E+02 E0= -.59792975E+02  d E =-.725941E-01
 trial-energy change:   -0.072594  1 .order   -0.104366   -0.718285    0.509554
 step:   0.4731(harm=  0.5065)  dis= 0.07708  next Energy=   -59.933628 (dE=-0.191E+00)
 bond charge predicted
       N       E                     dE             d eps       ncg     rms          rms(c)
DAV:   1    -0.599405463230E+02   -0.12548E+00   -0.26681E+01   384   0.321E+01    0.138E+00
DAV:   2    -0.599494242015E+02   -0.88779E-02   -0.64136E-01   544   0.519E+00    0.776E-01
DAV:   3    -0.599361189433E+02    0.13305E-01   -0.59801E-02   560   0.159E+00    0.308E-01
DAV:   4    -0.599350363549E+02    0.10826E-02   -0.54527E-03   464   0.449E-01    0.134E-01
DAV:   5    -0.599348784397E+02    0.15792E-03   -0.78873E-04   544   0.163E-01    0.408E-02
DAV:   6    -0.599349186576E+02   -0.40218E-04   -0.12120E-04   368   0.708E-02
   5 F= -.59934919E+02 E0= -.59917739E+02  d E =-.192383E+00
 curvature:  -0.40 expect dE=-0.924E-01 dE for cont linesearch -0.260E-04
 trial: gam= 0.28918 g(F)=  0.173E+00 g(S)=  0.569E-01 ort =-0.927E-02 (trialstep = 0.787E+00)
 search vector abs. value=  0.336E+00
 bond charge predicted
       N       E                     dE             d eps       ncg     rms          rms(c)
DAV:   1    -0.598968923260E+02    0.37986E-01   -0.28244E+01   384   0.355E+01    0.135E+00
DAV:   2    -0.599271495037E+02   -0.30257E-01   -0.77062E-01   544   0.592E+00    0.845E-01
DAV:   3    -0.599111253013E+02    0.16024E-01   -0.83058E-02   480   0.199E+00    0.289E-01
DAV:   4    -0.599100236884E+02    0.11016E-02   -0.12461E-02   496   0.667E-01    0.130E-01
DAV:   5    -0.599099254902E+02    0.98198E-04   -0.15089E-03   512   0.224E-01    0.569E-02
DAV:   6    -0.599099245551E+02    0.93510E-06   -0.18267E-04   368   0.824E-02
   6 F= -.59909925E+02 E0= -.59886017E+02  d E =0.249941E-01
 trial-energy change:    0.024994  1 .order    0.029136   -0.179205    0.237478
 step:   0.3502(harm=  0.3386)  dis= 0.02563  next Energy=   -59.975139 (dE=-0.402E-01)
 bond charge predicted
       N       E                     dE             d eps       ncg     rms          rms(c)
DAV:   1    -0.599726185855E+02   -0.62693E-01   -0.86241E+00   384   0.196E+01    0.730E-01
DAV:   2    -0.599801386532E+02   -0.75201E-02   -0.23170E-01   528   0.310E+00    0.483E-01
DAV:   3    -0.599758040103E+02    0.43346E-02   -0.18267E-02   480   0.933E-01    0.218E-01
DAV:   4    -0.599753805602E+02    0.42345E-03   -0.30573E-03   480   0.337E-01    0.830E-02
DAV:   5    -0.599753572026E+02    0.23358E-04   -0.30882E-04   432   0.110E-01
   7 F= -.59975357E+02 E0= -.59955147E+02  d E =-.404385E-01
 curvature:  -0.25 expect dE=-0.299E-01 dE for cont linesearch -0.216E-06
 trial: gam= 0.53956 g(F)=  0.109E+00 g(S)=  0.108E-01 ort = 0.539E-03 (trialstep = 0.700E+00)
 search vector abs. value=  0.218E+00
 bond charge predicted
       N       E                     dE             d eps       ncg     rms          rms(c)
DAV:   1    -0.599651269012E+02    0.10254E-01   -0.13675E+01   384   0.245E+01    0.957E-01
DAV:   2    -0.599747790984E+02   -0.96522E-02   -0.37409E-01   496   0.412E+00    0.599E-01
DAV:   3    -0.599684908998E+02    0.62882E-02   -0.37411E-02   480   0.129E+00    0.311E-01
DAV:   4    -0.599681741101E+02    0.31679E-03   -0.45382E-03   512   0.442E-01    0.152E-01
DAV:   5    -0.599681244451E+02    0.49665E-04   -0.69230E-04   480   0.178E-01
   8 F= -.59968124E+02 E0= -.59943889E+02  d E =0.723276E-02
 trial-energy change:    0.007233  1 .order    0.007347   -0.084179    0.098874
 step:   0.3218(harm=  0.3218)  dis= 0.01787  next Energy=   -59.994713 (dE=-0.194E-01)
 bond charge predicted
       N       E                     dE             d eps       ncg     rms          rms(c)
DAV:   1    -0.599940910132E+02   -0.25917E-01   -0.39597E+00   384   0.131E+01    0.499E-01
DAV:   2    -0.599967202413E+02   -0.26292E-02   -0.10677E-01   496   0.217E+00    0.321E-01
DAV:   3    -0.599948633081E+02    0.18569E-02   -0.12726E-02   464   0.725E-01    0.144E-01
DAV:   4    -0.599947997560E+02    0.63552E-04   -0.15034E-03   496   0.256E-01    0.747E-02
DAV:   5    -0.599947977511E+02    0.20049E-05   -0.20029E-04   352   0.940E-02
   9 F= -.59994798E+02 E0= -.59972695E+02  d E =-.194405E-01
 curvature:  -0.29 expect dE=-0.102E-01 dE for cont linesearch -0.704E-06
 trial: gam= 0.30874 g(F)=  0.282E-01 g(S)=  0.660E-02 ort = 0.725E-03 (trialstep = 0.624E+00)
 search vector abs. value=  0.561E-01
 bond charge predicted
       N       E                     dE             d eps       ncg     rms          rms(c)
DAV:   1    -0.600074964995E+02   -0.12697E-01   -0.25910E+00   384   0.102E+01    0.406E-01
DAV:   2    -0.600076860602E+02   -0.18956E-03   -0.59440E-02   456   0.156E+00    0.237E-01
DAV:   3    -0.600065971665E+02    0.10889E-02   -0.49492E-03   528   0.472E-01    0.120E-01
DAV:   4    -0.600064651277E+02    0.13204E-03   -0.82873E-04   504   0.185E-01    0.509E-02
DAV:   5    -0.600064619177E+02    0.32100E-05   -0.10468E-04   344   0.677E-02
  10 F= -.60006462E+02 E0= -.59983225E+02  d E =-.116642E-01
 trial-energy change:   -0.011664  1 .order   -0.011928   -0.021885   -0.001972
 step:   0.6860(harm=  0.6860)  dis= 0.01895  next Energy=   -60.006823 (dE=-0.120E-01)
 bond charge predicted
       N       E                     dE             d eps       ncg     rms          rms(c)
DAV:   1    -0.600065842049E+02   -0.11908E-03   -0.25454E-02   384   0.101E+00    0.396E-02
DAV:   2    -0.600065811580E+02    0.30470E-05   -0.56831E-04   432   0.154E-01
  11 F= -.60006581E+02 E0= -.59983329E+02  d E =-.117834E-01
 curvature:  -0.55 expect dE=-0.190E-01 dE for cont linesearch -0.264E-06
 trial: gam= 1.00889 g(F)=  0.238E-01 g(S)=  0.108E-01 ort = 0.164E-03 (trialstep = 0.388E+00)
 search vector abs. value=  0.920E-01
 bond charge predicted
       N       E                     dE             d eps       ncg     rms          rms(c)
DAV:   1    -0.600231313437E+02   -0.16547E-01   -0.15794E+00   384   0.781E+00    0.448E-01
DAV:   2    -0.600187203605E+02    0.44110E-02   -0.47657E-02   432   0.124E+00    0.258E-01
DAV:   3    -0.600173973885E+02    0.13230E-02   -0.39805E-03   432   0.423E-01    0.129E-01
DAV:   4    -0.600171085674E+02    0.28882E-03   -0.13611E-03   480   0.256E-01    0.405E-02
DAV:   5    -0.600171088750E+02   -0.30755E-06   -0.20797E-04   320   0.101E-01
  12 F= -.60017109E+02 E0= -.59993763E+02  d E =-.105277E-01
 trial-energy change:   -0.010528  1 .order   -0.010774   -0.013490   -0.008059
 step:   0.9638(harm=  0.9638)  dis= 0.03110  next Energy=   -60.023335 (dE=-0.168E-01)
 bond charge predicted
       N       E                     dE             d eps       ncg     rms          rms(c)
DAV:   1    -0.600365065820E+02   -0.19398E-01   -0.34806E+00   384   0.116E+01    0.664E-01
DAV:   2    -0.600269775698E+02    0.95290E-02   -0.10799E-01   432   0.186E+00    0.384E-01
DAV:   3    -0.600239407774E+02    0.30368E-02   -0.88424E-03   432   0.627E-01    0.195E-01
DAV:   4    -0.600232652053E+02    0.67557E-03   -0.31075E-03   480   0.390E-01    0.611E-02
DAV:   5    -0.600232683869E+02   -0.31816E-05   -0.53954E-04   480   0.154E-01
  13 F= -.60023268E+02 E0= -.59999837E+02  d E =-.166872E-01
 curvature:  -1.28 expect dE=-0.814E-01 dE for cont linesearch -0.365E-04
 trial: gam= 1.81522 g(F)=  0.546E-01 g(S)=  0.921E-02 ort = 0.162E-02 (trialstep = 0.124E+00)
 search vector abs. value=  0.373E+00
 bond charge predicted
       N       E                     dE             d eps       ncg     rms          rms(c)
DAV:   1    -0.600347741014E+02   -0.11509E-01   -0.61737E-01   384   0.490E+00    0.329E-01
DAV:   2    -0.600317223853E+02    0.30517E-02   -0.21200E-02   432   0.784E-01    0.181E-01
DAV:   3    -0.600310065095E+02    0.71588E-03   -0.17353E-03   464   0.268E-01    0.904E-02
DAV:   4    -0.600308338769E+02    0.17263E-03   -0.63845E-04   480   0.172E-01    0.253E-02
DAV:   5    -0.600308817622E+02   -0.47885E-04   -0.69021E-05   320   0.606E-02
  14 F= -.60030882E+02 E0= -.60007598E+02  d E =-.761338E-02
 ZBRENT: can't locate minimum, use default step
 trial-energy change:   -0.007613  1 .order   -0.007675   -0.008289   -0.007061
 step:   0.4967(harm=  0.8379)  dis= 0.02901  next Energy=   -60.051237 (dE=-0.280E-01)
 bond charge predicted
       N       E                     dE             d eps       ncg     rms          rms(c)
DAV:   1    -0.600831310177E+02   -0.52297E-01   -0.55649E+00   384   0.146E+01    0.101E+00
DAV:   2    -0.600558413408E+02    0.27290E-01   -0.21285E-01   448   0.244E+00    0.565E-01
DAV:   3    -0.600488863582E+02    0.69550E-02   -0.16319E-02   464   0.824E-01    0.289E-01
DAV:   4    -0.600468410364E+02    0.20453E-02   -0.62699E-03   480   0.549E-01    0.808E-02
DAV:   5    -0.600468518345E+02   -0.10798E-04   -0.82171E-04   480   0.194E-01
  15 F= -.60046852E+02 E0= -.60024520E+02  d E =-.235834E-01
 curvature:  -1.81 expect dE=-0.716E-01 dE for cont linesearch -0.479E-02
 ZBRENT: increasing intervall
 opt :   1.2416  next Energy=   -60.051372 (dE=-0.281E-01)
 bond charge predicted
       N       E                     dE             d eps       ncg     rms          rms(c)
DAV:   1    -0.602060501636E+02   -0.15921E+00   -0.22412E+01   384   0.292E+01    0.210E+00
DAV:   2    -0.600922635648E+02    0.11379E+00   -0.99222E-01   464   0.517E+00    0.117E+00
DAV:   3    -0.600615488298E+02    0.30715E-01   -0.68875E-02   464   0.174E+00    0.612E-01
DAV:   4    -0.600522874399E+02    0.92614E-02   -0.27969E-02   480   0.111E+00    0.188E-01
DAV:   5    -0.600519282390E+02    0.35920E-03   -0.45799E-03   480   0.410E-01    0.684E-02
DAV:   6    -0.600521024631E+02   -0.17422E-03   -0.59588E-04   448   0.140E-01    0.300E-02
DAV:   7    -0.600524062190E+02   -0.30376E-03   -0.13639E-04   336   0.678E-02    0.151E-02
DAV:   8    -0.600527780714E+02   -0.37185E-03   -0.13323E-04   368   0.585E-02    0.954E-03
DAV:   9    -0.600530231195E+02   -0.24505E-03   -0.70027E-05   336   0.412E-02    0.624E-03
DAV:  10    -0.600531918846E+02   -0.16877E-03   -0.48613E-05   344   0.282E-02    0.466E-03
DAV:  11    -0.600532639053E+02   -0.72021E-04   -0.17650E-05   320   0.196E-02
  16 F= -.60053264E+02 E0= -.60032025E+02  d E =-.299955E-01
 curvature:  -1.70 expect dE=-0.341E+00 dE for cont linesearch -0.136E-02
 ZBRENT: bracketing found
 ZBRENT: interpolating
 opt :   0.9780  next Energy=   -60.055536 (dE=-0.323E-01)
 bond charge predicted
       N       E                     dE             d eps       ncg     rms          rms(c)
DAV:   1    -0.600724371977E+02   -0.19245E-01   -0.28788E+00   384   0.108E+01    0.699E-01
DAV:   2    -0.600589291576E+02    0.13508E-01   -0.87716E-02   448   0.171E+00    0.368E-01
DAV:   3    -0.600557154876E+02    0.32137E-02   -0.85681E-03   416   0.580E-01    0.153E-01
DAV:   4    -0.600552129736E+02    0.50251E-03   -0.15585E-03   528   0.268E-01    0.488E-02
DAV:   5    -0.600551559860E+02    0.56988E-04   -0.21509E-04   352   0.974E-02
  17 F= -.60055156E+02 E0= -.60033341E+02  d E =-.318876E-01
 curvature:  -2.85 expect dE=-0.337E+00 dE for cont linesearch -0.156E-07
 trial: gam= 2.04285 g(F)=  0.103E+00 g(S)=  0.146E-01 ort =-0.452E-04 (trialstep = 0.657E-01)
 search vector abs. value=  0.167E+01
 bond charge predicted
       N       E                     dE             d eps       ncg     rms          rms(c)
DAV:   1    -0.600676813347E+02   -0.12468E-01   -0.75753E-01   384   0.549E+00    0.390E-01
DAV:   2    -0.600634519684E+02    0.42294E-02   -0.28431E-02   448   0.875E-01    0.209E-01
DAV:   3    -0.600626692142E+02    0.78275E-03   -0.22606E-03   496   0.300E-01    0.102E-01
DAV:   4    -0.600625061461E+02    0.16307E-03   -0.67209E-04   472   0.180E-01    0.267E-02
DAV:   5    -0.600625011985E+02    0.49476E-05   -0.66805E-05   320   0.593E-02
  18 F= -.60062501E+02 E0= -.60041026E+02  d E =-.734521E-02
 ZBRENT: can't locate minimum, use default step
 trial-energy change:   -0.007345  1 .order   -0.007157   -0.007745   -0.006568
 step:   0.2628(harm=  0.4322)  dis= 0.02995  next Energy=   -60.080629 (dE=-0.255E-01)
 bond charge predicted
       N       E                     dE             d eps       ncg     rms          rms(c)
DAV:   1    -0.601292877776E+02   -0.66782E-01   -0.68201E+00   384   0.163E+01    0.120E+00
DAV:   2    -0.600887153606E+02    0.40572E-01   -0.29755E-01   464   0.272E+00    0.660E-01
DAV:   3    -0.600795538104E+02    0.91616E-02   -0.22673E-02   496   0.944E-01    0.335E-01
DAV:   4    -0.600768180235E+02    0.27358E-02   -0.76172E-03   496   0.610E-01    0.935E-02
DAV:   5    -0.600767452486E+02    0.72775E-04   -0.10486E-03   496   0.211E-01    0.342E-02
DAV:   6    -0.600768210400E+02   -0.75791E-04   -0.11388E-04   344   0.643E-02
  19 F= -.60076821E+02 E0= -.60055993E+02  d E =-.216651E-01
 curvature:  -2.41 expect dE=-0.178E+00 dE for cont linesearch -0.376E-02
 ZBRENT: increasing intervall
 opt :   0.6570  next Energy=   -60.077678 (dE=-0.225E-01)
 bond charge predicted
       N       E                     dE             d eps       ncg     rms          rms(c)
DAV:   1    -0.603005349426E+02   -0.22379E+00   -0.27503E+01   384   0.326E+01    0.252E+00
DAV:   2    -0.601303982169E+02    0.17014E+00   -0.14332E+00   480   0.587E+00    0.138E+00
DAV:   3    -0.600891527871E+02    0.41245E-01   -0.97940E-02   464   0.204E+00    0.715E-01
DAV:   4    -0.600768836146E+02    0.12269E-01   -0.38820E-02   512   0.130E+00    0.228E-01
DAV:   5    -0.600761254826E+02    0.75813E-03   -0.82395E-03   480   0.508E-01    0.825E-02
DAV:   6    -0.600762335671E+02   -0.10808E-03   -0.94859E-04   496   0.173E-01    0.372E-02
DAV:   7    -0.600765545742E+02   -0.32101E-03   -0.19581E-04   352   0.698E-02    0.173E-02
DAV:   8    -0.600769407873E+02   -0.38621E-03   -0.12066E-04   336   0.528E-02    0.104E-02
DAV:   9    -0.600772679377E+02   -0.32715E-03   -0.11043E-04   352   0.438E-02    0.676E-03
DAV:  10    -0.600774705007E+02   -0.20256E-03   -0.61768E-05   336   0.291E-02    0.397E-03
DAV:  11    -0.600775428915E+02   -0.72391E-04   -0.16857E-05   344   0.167E-02
  20 F= -.60077543E+02 E0= -.60058105E+02  d E =-.223869E-01
 curvature:  -0.55 expect dE=-0.192E+00 dE for cont linesearch -0.884E-03
 trial: gam= 0.00000 g(F)=  0.331E+00 g(S)=  0.189E-01 ort =-0.518E-01 (trialstep = 0.184E+00)
 search vector abs. value=  0.349E+00
 bond charge predicted
       N       E                     dE             d eps       ncg     rms          rms(c)
DAV:   1    -0.601123464603E+02   -0.34876E-01   -0.17494E+00   384   0.858E+00    0.428E-01
DAV:   2    -0.601117915715E+02    0.55489E-03   -0.56840E-02   512   0.146E+00    0.263E-01
DAV:   3    -0.601102124954E+02    0.15791E-02   -0.70886E-03   512   0.490E-01    0.124E-01
DAV:   4    -0.601100855784E+02    0.12692E-03   -0.10866E-03   480   0.182E-01    0.555E-02
DAV:   5    -0.601100718839E+02    0.13694E-04   -0.12528E-04   368   0.700E-02
  21 F= -.60110072E+02 E0= -.60090717E+02  d E =-.325290E-01
 trial-energy change:   -0.032529  1 .order   -0.032632   -0.064288   -0.000976
 step:   0.1868(harm=  0.1868)  dis= 0.01784  next Energy=   -60.110182 (dE=-0.326E-01)
 bond charge predicted
       N       E                     dE             d eps       ncg     rms          rms(c)
DAV:   1    -0.601100841113E+02    0.14671E-05   -0.45464E-04   464   0.141E-01    0.860E-03
DAV:   2    -0.601100879580E+02   -0.38468E-05   -0.12523E-05   288   0.243E-02
  22 F= -.60110088E+02 E0= -.60090687E+02  d E =-.325451E-01
 curvature:  -0.09 expect dE=-0.512E-02 dE for cont linesearch -0.365E-08
 trial: gam= 0.15729 g(F)=  0.449E-01 g(S)=  0.996E-02 ort =-0.117E-03 (trialstep = 0.185E+00)
 search vector abs. value=  0.635E-01
 bond charge predicted
       N       E                     dE             d eps       ncg     rms          rms(c)
DAV:   1    -0.601184370701E+02   -0.83530E-02   -0.19919E-01   384   0.326E+00    0.153E-01
DAV:   2    -0.601182692172E+02    0.16785E-03   -0.54859E-03   512   0.492E-01    0.961E-02
DAV:   3    -0.601180357384E+02    0.23348E-03   -0.90666E-04   480   0.186E-01    0.380E-02
DAV:   4    -0.601180177118E+02    0.18027E-04   -0.11181E-04   368   0.689E-02
  23 F= -.60118018E+02 E0= -.60098653E+02  d E =-.792975E-02
 trial-energy change:   -0.007930  1 .order   -0.007971   -0.010118   -0.005824
 step:   0.4347(harm=  0.4347)  dis= 0.01248  next Energy=   -60.122007 (dE=-0.119E-01)
 bond charge predicted
       N       E                     dE             d eps       ncg     rms          rms(c)
DAV:   1    -0.601226536362E+02   -0.46179E-02   -0.36708E-01   384   0.443E+00    0.208E-01
DAV:   2    -0.601223483112E+02    0.30532E-03   -0.10251E-02   512   0.671E-01    0.131E-01
DAV:   3    -0.601219116076E+02    0.43670E-03   -0.17568E-03   496   0.256E-01    0.532E-02
DAV:   4    -0.601218750527E+02    0.36555E-04   -0.23387E-04   448   0.956E-02
  24 F= -.60121875E+02 E0= -.60102533E+02  d E =-.117871E-01
 curvature:  -0.25 expect dE=-0.767E-02 dE for cont linesearch -0.863E-07
 trial: gam= 0.57466 g(F)=  0.245E-01 g(S)=  0.599E-02 ort =-0.148E-03 (trialstep = 0.235E+00)
 search vector abs. value=  0.513E-01
 bond charge predicted
       N       E                     dE             d eps       ncg     rms          rms(c)
DAV:   1    -0.601290834395E+02   -0.71718E-02   -0.25970E-01   384   0.357E+00    0.210E-01
DAV:   2    -0.601281448393E+02    0.93860E-03   -0.74578E-03   512   0.536E-01    0.120E-01
DAV:   3    -0.601277628567E+02    0.38198E-03   -0.12864E-03   480   0.206E-01    0.503E-02
DAV:   4    -0.601277242094E+02    0.38647E-04   -0.88990E-05   304   0.675E-02
  25 F= -.60127724E+02 E0= -.60108753E+02  d E =-.584916E-02
 trial-energy change:   -0.005849  1 .order   -0.005988   -0.007130   -0.004846
 step:   0.7324(harm=  0.7324)  dis= 0.01310  next Energy=   -60.133006 (dE=-0.111E-01)
 bond charge predicted
       N       E                     dE             d eps       ncg     rms          rms(c)
DAV:   1    -0.601387038768E+02   -0.10941E-01   -0.11704E+00   384   0.756E+00    0.447E-01
DAV:   2    -0.601346300815E+02    0.40738E-02   -0.33877E-02   512   0.114E+00    0.254E-01
DAV:   3    -0.601329377853E+02    0.16923E-02   -0.56971E-03   472   0.438E-01    0.107E-01
DAV:   4    -0.601327450412E+02    0.19274E-03   -0.46507E-04   496   0.147E-01    0.469E-02
DAV:   5    -0.601327408620E+02    0.41792E-05   -0.10540E-04   368   0.608E-02
  26 F= -.60132741E+02 E0= -.60114533E+02  d E =-.108658E-01
 curvature:  -0.62 expect dE=-0.219E-01 dE for cont linesearch -0.301E-05
 trial: gam= 1.12655 g(F)=  0.286E-01 g(S)=  0.691E-02 ort = 0.500E-03 (trialstep = 0.168E+00)
 search vector abs. value=  0.102E+00
 bond charge predicted
       N       E                     dE             d eps       ncg     rms          rms(c)
DAV:   1    -0.601396469677E+02   -0.69019E-02   -0.25310E-01   384   0.339E+00    0.217E-01
DAV:   2    -0.601385014939E+02    0.11455E-02   -0.80275E-03   512   0.536E-01    0.119E-01
DAV:   3    -0.601381412726E+02    0.36022E-03   -0.92819E-04   456   0.190E-01    0.472E-02
DAV:   4    -0.601381080093E+02    0.33263E-04   -0.10780E-04   312   0.774E-02
  27 F= -.60138108E+02 E0= -.60120699E+02  d E =-.536715E-02
 ZBRENT: can't locate minimum, use default step
 trial-energy change:   -0.005367  1 .order   -0.005358   -0.006076   -0.004639
 step:   0.6738(harm=  0.7120)  dis= 0.01727  next Energy=   -60.145583 (dE=-0.128E-01)
 bond charge predicted
       N       E                     dE             d eps       ncg     rms          rms(c)
DAV:   1    -0.601590601864E+02   -0.20919E-01   -0.22696E+00   384   0.101E+01    0.658E-01
DAV:   2    -0.601489655787E+02    0.10095E-01   -0.72701E-02   496   0.160E+00    0.360E-01
DAV:   3    -0.601457492267E+02    0.32164E-02   -0.82229E-03   544   0.569E-01    0.143E-01
DAV:   4    -0.601452355505E+02    0.51368E-03   -0.98704E-04   480   0.220E-01    0.472E-02
DAV:   5    -0.601452508147E+02   -0.15264E-04   -0.15814E-04   352   0.805E-02
  28 F= -.60145251E+02 E0= -.60130079E+02  d E =-.125100E-01
 curvature:  -1.00 expect dE=-0.326E-01 dE for cont linesearch -0.349E-04
 trial: gam= 0.90642 g(F)=  0.285E-01 g(S)=  0.409E-02 ort = 0.189E-02 (trialstep = 0.229E+00)
 search vector abs. value=  0.120E+00
 bond charge predicted
       N       E                     dE             d eps       ncg     rms          rms(c)
DAV:   1    -0.601549585318E+02   -0.97230E-02   -0.57604E-01   384   0.503E+00    0.321E-01
DAV:   2    -0.601523495908E+02    0.26089E-02   -0.17171E-02   464   0.789E-01    0.172E-01
DAV:   3    -0.601516084333E+02    0.74116E-03   -0.22326E-03   480   0.296E-01    0.649E-02
DAV:   4    -0.601515561003E+02    0.52333E-04   -0.20602E-04   360   0.102E-01
  29 F= -.60151556E+02 E0= -.60137579E+02  d E =-.630529E-02
 trial-energy change:   -0.006305  1 .order   -0.006283   -0.007867   -0.004699
 step:   0.5693(harm=  0.5693)  dis= 0.01390  next Energy=   -60.155020 (dE=-0.977E-02)
 bond charge predicted
       N       E                     dE             d eps       ncg     rms          rms(c)
DAV:   1    -0.601623696575E+02   -0.10761E-01   -0.12685E+00   384   0.747E+00    0.478E-01
DAV:   2    -0.601566528487E+02    0.57168E-02   -0.37612E-02   480   0.118E+00    0.255E-01
DAV:   3    -0.601550032293E+02    0.16496E-02   -0.51577E-03   544   0.438E-01    0.942E-02
DAV:   4    -0.601548350400E+02    0.16819E-03   -0.45196E-04   472   0.138E-01    0.339E-02
DAV:   5    -0.601548850840E+02   -0.50044E-04   -0.88413E-05   336   0.573E-02
  30 F= -.60154885E+02 E0= -.60142610E+02  d E =-.963427E-02
 curvature:  -0.99 expect dE=-0.404E-01 dE for cont linesearch -0.186E-05
 trial: gam= 1.33297 g(F)=  0.380E-01 g(S)=  0.276E-02 ort =-0.473E-03 (trialstep = 0.141E+00)
 search vector abs. value=  0.252E+00
 bond charge predicted
       N       E                     dE             d eps       ncg     rms          rms(c)
DAV:   1    -0.601619931837E+02   -0.71581E-02   -0.48212E-01   384   0.446E+00    0.274E-01
DAV:   2    -0.601603534111E+02    0.16398E-02   -0.12482E-02   480   0.696E-01    0.150E-01
DAV:   3    -0.601597958334E+02    0.55758E-03   -0.21988E-03   512   0.287E-01    0.536E-02
DAV:   4    -0.601597771349E+02    0.18698E-04   -0.21950E-04   344   0.984E-02
  31 F= -.60159777E+02 E0= -.60148360E+02  d E =-.489205E-02
 trial-energy change:   -0.004892  1 .order   -0.004849   -0.005656   -0.004043
 step:   0.4946(harm=  0.4946)  dis= 0.01565  next Energy=   -60.164799 (dE=-0.991E-02)
 bond charge predicted
       N       E                     dE             d eps       ncg     rms          rms(c)
DAV:   1    -0.601784843177E+02   -0.18688E-01   -0.30264E+00   384   0.111E+01    0.690E-01
DAV:   2    -0.601682004849E+02    0.10284E-01   -0.78057E-02   464   0.175E+00    0.379E-01
DAV:   3    -0.601646375919E+02    0.35629E-02   -0.14185E-02   512   0.717E-01    0.133E-01
DAV:   4    -0.601643274373E+02    0.31015E-03   -0.14629E-03   496   0.235E-01    0.611E-02
DAV:   5    -0.601643479123E+02   -0.20475E-04   -0.22895E-04   360   0.983E-02
  32 F= -.60164348E+02 E0= -.60155075E+02  d E =-.946283E-02
 curvature:  -1.55 expect dE=-0.780E-01 dE for cont linesearch -0.155E-04
 trial: gam= 1.15898 g(F)=  0.403E-01 g(S)=  0.984E-02 ort =-0.158E-02 (trialstep = 0.139E+00)
 search vector abs. value=  0.385E+00
 bond charge predicted
       N       E                     dE             d eps       ncg     rms          rms(c)
DAV:   1    -0.601738222455E+02   -0.94948E-02   -0.74958E-01   384   0.527E+00    0.318E-01
DAV:   2    -0.601718548168E+02    0.19674E-02   -0.15377E-02   464   0.766E-01    0.174E-01
DAV:   3    -0.601709708482E+02    0.88397E-03   -0.35089E-03   496   0.339E-01    0.514E-02
DAV:   4    -0.601709905979E+02   -0.19750E-04   -0.29773E-04   400   0.105E-01
  33 F= -.60170991E+02 E0= -.60162429E+02  d E =-.664269E-02
 ZBRENT: can't locate minimum, use default step
 trial-energy change:   -0.006643  1 .order   -0.006568   -0.006701   -0.006435
 step:   0.5544(harm=  3.4839)  dis= 0.01928  next Energy=   -60.248567 (dE=-0.842E-01)
 bond charge predicted
       N       E                     dE             d eps       ncg     rms          rms(c)
DAV:   1    -0.602130216949E+02   -0.42051E-01   -0.67414E+00   384   0.157E+01    0.964E-01
DAV:   2    -0.601955216100E+02    0.17500E-01   -0.14078E-01   480   0.233E+00    0.524E-01
DAV:   3    -0.601876145395E+02    0.79071E-02   -0.30848E-02   488   0.101E+00    0.154E-01
DAV:   4    -0.601873517746E+02    0.26276E-03   -0.24704E-03   496   0.298E-01    0.741E-02
DAV:   5    -0.601874049041E+02   -0.53129E-04   -0.30916E-04   400   0.113E-01
  34 F= -.60187405E+02 E0= -.60180841E+02  d E =-.230570E-01
 curvature:  -3.23 expect dE=-0.187E+00 dE for cont linesearch -0.105E-01
 ZBRENT: increasing intervall
 opt :   1.3861  next Energy=   -60.207566 (dE=-0.432E-01)
 bond charge predicted
       N       E                     dE             d eps       ncg     rms          rms(c)
DAV:   1    -0.603102005518E+02   -0.12285E+00   -0.27286E+01   384   0.318E+01    0.197E+00
DAV:   2    -0.602407625131E+02    0.69438E-01   -0.62645E-01   480   0.499E+00    0.106E+00
DAV:   3    -0.602090577040E+02    0.31705E-01   -0.12385E-01   496   0.207E+00    0.316E-01
DAV:   4    -0.602080909049E+02    0.96680E-03   -0.89618E-03   464   0.589E-01    0.150E-01
DAV:   5    -0.602082386209E+02   -0.14772E-03   -0.13484E-03   536   0.212E-01    0.439E-02
DAV:   6    -0.602086566803E+02   -0.41806E-03   -0.19156E-04   352   0.934E-02    0.220E-02
DAV:   7    -0.602090985191E+02   -0.44184E-03   -0.16576E-04   352   0.654E-02    0.131E-02
DAV:   8    -0.602094930699E+02   -0.39455E-03   -0.13301E-04   336   0.583E-02    0.732E-03
DAV:   9    -0.602097341277E+02   -0.24106E-03   -0.83948E-05   352   0.384E-02    0.606E-03
DAV:  10    -0.602098433331E+02   -0.10921E-03   -0.26432E-05   344   0.266E-02    0.323E-03
DAV:  11    -0.602099052417E+02   -0.61909E-04   -0.13660E-05   344   0.158E-02
  35 F= -.60209905E+02 E0= -.60206692E+02  d E =-.455573E-01
 curvature:  -6.22 expect dE=-0.115E+01 dE for cont linesearch -0.506E-02
 ZBRENT: increasing intervall
 opt :   3.0494  next Energy=   -60.210020 (dE=-0.457E-01)
 bond charge predicted
       N       E                     dE             d eps       ncg     rms          rms(c)
DAV:   1    -0.605582104228E+02   -0.34837E+00   -0.11443E+02   384   0.683E+01    0.412E+00
DAV:   2    -0.603473523870E+02    0.21086E+00   -0.34302E+00   480   0.123E+01    0.224E+00
DAV:   3    -0.602178448071E+02    0.12951E+00   -0.52883E-01   512   0.467E+00    0.694E-01
DAV:   4    -0.602135917017E+02    0.42531E-02   -0.35069E-02   480   0.126E+00    0.336E-01
DAV:   5    -0.602132272285E+02    0.36447E-03   -0.51212E-03   544   0.422E-01    0.919E-02
DAV:   6    -0.602140738592E+02   -0.84663E-03   -0.81482E-04   536   0.172E-01    0.452E-02
DAV:   7    -0.602149616467E+02   -0.88779E-03   -0.38944E-04   440   0.100E-01    0.256E-02
DAV:   8    -0.602157587946E+02   -0.79715E-03   -0.30955E-04   416   0.825E-02    0.151E-02
DAV:   9    -0.602163383367E+02   -0.57954E-03   -0.25728E-04   432   0.609E-02    0.110E-02
DAV:  10    -0.602166184259E+02   -0.28009E-03   -0.95183E-05   384   0.416E-02    0.545E-03
DAV:  11    -0.602167122380E+02   -0.93812E-04   -0.30099E-05   384   0.212E-02
  36 F= -.60216712E+02 E0= -.60216370E+02  d E =-.523643E-01
 curvature:  -0.14 expect dE=-0.112E+00 dE for cont linesearch -0.525E-04
 trial: gam= 0.00000 g(F)=  0.727E+00 g(S)=  0.672E-01 ort =-0.120E-01 (trialstep = 0.349E+00)
 search vector abs. value=  0.794E+00
 bond charge predicted
       N       E                     dE             d eps       ncg     rms          rms(c)
DAV:   1    -0.602866636390E+02   -0.70045E-01   -0.11775E+01   384   0.229E+01    0.115E+00
DAV:   2    -0.602924608920E+02   -0.57973E-02   -0.33490E-01   512   0.371E+00    0.685E-01
DAV:   3    -0.602811122174E+02    0.11349E-01   -0.38084E-02   512   0.129E+00    0.248E-01
DAV:   4    -0.602804991794E+02    0.61304E-03   -0.62267E-03   512   0.462E-01    0.839E-02
DAV:   5    -0.602804602520E+02    0.38927E-04   -0.47362E-04   512   0.127E-01
  37 F= -.60280460E+02 E0= -.60279347E+02  d E =-.637480E-01
 trial-energy change:   -0.063748  1 .order   -0.059822   -0.277451    0.157808
 step:   0.2271(harm=  0.2228)  dis= 0.02811  next Energy=   -60.307927 (dE=-0.912E-01)
 bond charge predicted
       N       E                     dE             d eps       ncg     rms          rms(c)
DAV:   1    -0.603084579810E+02   -0.27959E-01   -0.14470E+00   384   0.816E+00    0.379E-01
DAV:   2    -0.603092697887E+02   -0.81181E-03   -0.42163E-02   512   0.132E+00    0.247E-01
DAV:   3    -0.603079132632E+02    0.13565E-02   -0.47388E-03   512   0.447E-01    0.943E-02
DAV:   4    -0.603078603517E+02    0.52912E-04   -0.73017E-04   512   0.156E-01
  38 F= -.60307860E+02 E0= -.60307148E+02  d E =-.911481E-01
 curvature:  -0.11 expect dE=-0.140E-01 dE for cont linesearch -0.949E-06
 trial: gam= 0.15471 g(F)=  0.114E+00 g(S)=  0.112E-01 ort = 0.260E-02 (trialstep = 0.325E+00)
 search vector abs. value=  0.145E+00
 bond charge predicted
       N       E                     dE             d eps       ncg     rms          rms(c)
DAV:   1    -0.603400181818E+02   -0.32105E-01   -0.17314E+00   384   0.906E+00    0.325E-01
DAV:   2    -0.603411365187E+02   -0.11183E-02   -0.38266E-02   544   0.134E+00    0.210E-01
DAV:   3    -0.603401689445E+02    0.96757E-03   -0.35572E-03   576   0.412E-01    0.787E-02
DAV:   4    -0.603401188129E+02    0.50132E-04   -0.62801E-04   512   0.146E-01
  39 F= -.60340119E+02 E0= -.60339245E+02  d E =-.322585E-01
 trial-energy change:   -0.032258  1 .order   -0.032224   -0.040895   -0.023554
 step:   0.7664(harm=  0.7664)  dis= 0.02070  next Energy=   -60.356081 (dE=-0.482E-01)
 bond charge predicted
       N       E                     dE             d eps       ncg     rms          rms(c)
DAV:   1    -0.603556122291E+02   -0.15443E-01   -0.32027E+00   384   0.123E+01    0.448E-01
DAV:   2    -0.603577085450E+02   -0.20963E-02   -0.71121E-02   528   0.183E+00    0.290E-01
DAV:   3    -0.603558674605E+02    0.18411E-02   -0.66489E-03   576   0.563E-01    0.109E-01
DAV:   4    -0.603557670368E+02    0.10042E-03   -0.11719E-03   544   0.197E-01    0.505E-02
DAV:   5    -0.603557674095E+02   -0.37265E-06   -0.82348E-05   384   0.613E-02
  40 F= -.60355767E+02 E0= -.60354696E+02  d E =-.479071E-01
 curvature:  -0.44 expect dE=-0.460E-01 dE for cont linesearch -0.128E-04
 trial: gam= 0.80966 g(F)=  0.925E-01 g(S)=  0.115E-01 ort =-0.205E-02 (trialstep = 0.306E+00)
 search vector abs. value=  0.196E+00
 bond charge predicted
       N       E                     dE             d eps       ncg     rms          rms(c)
DAV:   1    -0.603762888574E+02   -0.20522E-01   -0.22095E+00   384   0.990E+00    0.356E-01
DAV:   2    -0.603781984649E+02   -0.19096E-02   -0.51480E-02   512   0.154E+00    0.213E-01
DAV:   3    -0.603773175688E+02    0.88090E-03   -0.42941E-03   496   0.442E-01    0.928E-02
DAV:   4    -0.603772647359E+02    0.52833E-04   -0.59353E-04   512   0.157E-01
  41 F= -.60377265E+02 E0= -.60375980E+02  d E =-.214973E-01
 trial-energy change:   -0.021497  1 .order   -0.021494   -0.031351   -0.011638
 step:   0.4874(harm=  0.4874)  dis= 0.01118  next Energy=   -60.380697 (dE=-0.249E-01)
 bond charge predicted
       N       E                     dE             d eps       ncg     rms          rms(c)
DAV:   1    -0.603803850081E+02   -0.30674E-02   -0.76756E-01   384   0.583E+00    0.211E-01
DAV:   2    -0.603810093524E+02   -0.62434E-03   -0.17619E-02   512   0.902E-01    0.127E-01
DAV:   3    -0.603807092081E+02    0.30014E-03   -0.15824E-03   512   0.267E-01    0.545E-02
DAV:   4    -0.603806972854E+02    0.11923E-04   -0.20804E-04   416   0.946E-02
  42 F= -.60380697E+02 E0= -.60379269E+02  d E =-.249299E-01
 curvature:  -0.47 expect dE=-0.320E-01 dE for cont linesearch -0.621E-07
 trial: gam= 0.66335 g(F)=  0.625E-01 g(S)=  0.615E-02 ort =-0.161E-03 (trialstep = 0.343E+00)
 search vector abs. value=  0.155E+00
 bond charge predicted
       N       E                     dE             d eps       ncg     rms          rms(c)
DAV:   1    -0.603983815449E+02   -0.17672E-01   -0.23054E+00   416   0.949E+00    0.363E-01
DAV:   2    -0.603999636831E+02   -0.15821E-02   -0.50083E-02   536   0.148E+00    0.211E-01
DAV:   3    -0.603990381807E+02    0.92550E-03   -0.39523E-03   544   0.422E-01    0.869E-02
DAV:   4    -0.603990099139E+02    0.28267E-04   -0.56964E-04   488   0.150E-01
  43 F= -.60399010E+02 E0= -.60397359E+02  d E =-.183126E-01
 trial-energy change:   -0.018313  1 .order   -0.018331   -0.023478   -0.013184
 step:   0.7816(harm=  0.7816)  dis= 0.01359  next Energy=   -60.407472 (dE=-0.268E-01)
 bond charge predicted
       N       E                     dE             d eps       ncg     rms          rms(c)
DAV:   1    -0.604067441132E+02   -0.77059E-02   -0.37820E+00   384   0.122E+01    0.467E-01
DAV:   2    -0.604094586090E+02   -0.27145E-02   -0.83476E-02   560   0.190E+00    0.273E-01
DAV:   3    -0.604079032698E+02    0.15553E-02   -0.66997E-03   528   0.547E-01    0.114E-01
DAV:   4    -0.604078562778E+02    0.46992E-04   -0.95960E-04   496   0.196E-01
  44 F= -.60407856E+02 E0= -.60405878E+02  d E =-.271590E-01
 curvature:  -0.88 expect dE=-0.127E+00 dE for cont linesearch -0.193E-04
 trial: gam= 2.08750 g(F)=  0.124E+00 g(S)=  0.205E-01 ort = 0.184E-02 (trialstep = 0.806E-01)
 search vector abs. value=  0.826E+00
 bond charge predicted
       N       E                     dE             d eps       ncg     rms          rms(c)
DAV:   1    -0.604190256957E+02   -0.11122E-01   -0.65777E-01   384   0.488E+00    0.201E-01
DAV:   2    -0.604193397830E+02   -0.31409E-03   -0.13507E-02   568   0.738E-01    0.119E-01
DAV:   3    -0.604190561235E+02    0.28366E-03   -0.13396E-03   576   0.239E-01    0.452E-02
DAV:   4    -0.604190627744E+02   -0.66509E-05   -0.15156E-04   352   0.855E-02
  45 F= -.60419063E+02 E0= -.60417040E+02  d E =-.112065E-01
 ZBRENT: can't locate minimum, use default step
 trial-energy change:   -0.011206  1 .order   -0.011038   -0.011944   -0.010131
 step:   0.3224(harm=  0.5310)  dis= 0.01388  next Energy=   -60.447206 (dE=-0.393E-01)
 bond charge predicted
       N       E                     dE             d eps       ncg     rms          rms(c)
DAV:   1    -0.604416522262E+02   -0.22596E-01   -0.59150E+00   384   0.146E+01    0.607E-01
DAV:   2    -0.604448737538E+02   -0.32215E-02   -0.12491E-01   544   0.230E+00    0.350E-01
DAV:   3    -0.604422803882E+02    0.25934E-02   -0.11260E-02   576   0.711E-01    0.134E-01
DAV:   4    -0.604421768738E+02    0.10351E-03   -0.14102E-03   552   0.240E-01    0.629E-02
DAV:   5    -0.604422355143E+02   -0.58640E-04   -0.15357E-04   336   0.822E-02
  46 F= -.60442236E+02 E0= -.60440106E+02  d E =-.343792E-01
 curvature:  -1.16 expect dE=-0.106E+00 dE for cont linesearch -0.573E-02
 ZBRENT: increasing intervall
 opt :   0.8059  next Energy=   -60.443148 (dE=-0.353E-01)
 bond charge predicted
       N       E                     dE             d eps       ncg     rms          rms(c)
DAV:   1    -0.604359942720E+02    0.61826E-02   -0.23871E+01   384   0.298E+01    0.125E+00
DAV:   2    -0.604523294211E+02   -0.16335E-01   -0.55153E-01   576   0.494E+00    0.708E-01
DAV:   3    -0.604421422749E+02    0.10187E-01   -0.44176E-02   576   0.145E+00    0.283E-01
DAV:   4    -0.604416212413E+02    0.52103E-03   -0.53769E-03   528   0.469E-01    0.129E-01
DAV:   5    -0.604418054309E+02   -0.18419E-03   -0.68681E-04   464   0.164E-01    0.498E-02
DAV:   6    -0.604419552915E+02   -0.14986E-03   -0.98032E-05   352   0.680E-02    0.160E-02
DAV:   7    -0.604420729827E+02   -0.11769E-03   -0.58738E-05   336   0.467E-02    0.689E-03
DAV:   8    -0.604421481630E+02   -0.75180E-04   -0.16646E-05   368   0.280E-02
  47 F= -.60442148E+02 E0= -.60439748E+02  d E =-.342919E-01
 curvature:  -0.19 expect dE=-0.999E-01 dE for cont linesearch -0.102E-02
 trial: gam= 0.00000 g(F)=  0.507E+00 g(S)=  0.329E-01 ort =-0.674E-01 (trialstep = 0.226E+00)
 search vector abs. value=  0.540E+00
 bond charge predicted
       N       E                     dE             d eps       ncg     rms          rms(c)
DAV:   1    -0.604932778124E+02   -0.51205E-01   -0.40989E+00   384   0.132E+01    0.660E-01
DAV:   2    -0.604951401719E+02   -0.18624E-02   -0.13001E-01   512   0.224E+00    0.415E-01
DAV:   3    -0.604910220616E+02    0.41181E-02   -0.18503E-02   544   0.804E-01    0.159E-01
DAV:   4    -0.604908501198E+02    0.17194E-03   -0.24330E-03   496   0.298E-01    0.795E-02
DAV:   5    -0.604908695819E+02   -0.19462E-04   -0.36769E-04   488   0.105E-01
  48 F= -.60490870E+02 E0= -.60488848E+02  d E =-.487214E-01
 trial-energy change:   -0.048721  1 .order   -0.049503   -0.121873    0.022866
 step:   0.1890(harm=  0.1900)  dis= 0.01039  next Energy=   -60.492730 (dE=-0.506E-01)
 bond charge predicted
       N       E                     dE             d eps       ncg     rms          rms(c)
DAV:   1    -0.604927567558E+02   -0.19066E-02   -0.10628E-01   384   0.213E+00    0.105E-01
DAV:   2    -0.604928457580E+02   -0.89002E-04   -0.34051E-03   496   0.369E-01    0.641E-02
DAV:   3    -0.604927615939E+02    0.84164E-04   -0.48425E-04   480   0.131E-01
  49 F= -.60492762E+02 E0= -.60490638E+02  d E =-.506134E-01
 curvature:  -0.09 expect dE=-0.102E-01 dE for cont linesearch -0.927E-08
 trial: gam= 0.19871 g(F)=  0.804E-01 g(S)=  0.272E-01 ort = 0.230E-03 (trialstep = 0.218E+00)
 search vector abs. value=  0.129E+00
 bond charge predicted
       N       E                     dE             d eps       ncg     rms          rms(c)
DAV:   1    -0.605135010709E+02   -0.20655E-01   -0.72436E-01   448   0.593E+00    0.339E-01
DAV:   2    -0.605117774019E+02    0.17237E-02   -0.17257E-02   480   0.869E-01    0.190E-01
DAV:   3    -0.605109774418E+02    0.79996E-03   -0.42204E-03   488   0.397E-01    0.593E-02
DAV:   4    -0.605109414121E+02    0.36030E-04   -0.50159E-04   496   0.134E-01
  50 F= -.60510941E+02 E0= -.60509240E+02  d E =-.181798E-01
 trial-energy change:   -0.018180  1 .order   -0.018171   -0.023491   -0.012851
 step:   0.4820(harm=  0.4820)  dis= 0.01464  next Energy=   -60.518693 (dE=-0.259E-01)
 bond charge predicted
       N       E                     dE             d eps       ncg     rms          rms(c)
DAV:   1    -0.605220190781E+02   -0.11042E-01   -0.10585E+00   448   0.717E+00    0.414E-01
DAV:   2    -0.605195584509E+02    0.24606E-02   -0.25449E-02   488   0.106E+00    0.234E-01
DAV:   3    -0.605183479844E+02    0.12105E-02   -0.61499E-03   480   0.483E-01    0.740E-02
DAV:   4    -0.605183000304E+02    0.47954E-04   -0.74878E-04   472   0.164E-01
  51 F= -.60518300E+02 E0= -.60517040E+02  d E =-.255384E-01
 curvature:  -0.29 expect dE=-0.313E-01 dE for cont linesearch -0.247E-04
 trial: gam= 1.04614 g(F)=  0.968E-01 g(S)=  0.115E-01 ort =-0.332E-02 (trialstep = 0.144E+00)
 search vector abs. value=  0.242E+00
 bond charge predicted
       N       E                     dE             d eps       ncg     rms          rms(c)
DAV:   1    -0.605343389064E+02   -0.15991E-01   -0.57488E-01   384   0.470E+00    0.279E-01
DAV:   2    -0.605327627313E+02    0.15762E-02   -0.15715E-02   480   0.771E-01    0.150E-01
DAV:   3    -0.605320373936E+02    0.72534E-03   -0.38104E-03   480   0.340E-01    0.421E-02
DAV:   4    -0.605320528480E+02   -0.15454E-04   -0.27163E-04   360   0.100E-01
  52 F= -.60532053E+02 E0= -.60531125E+02  d E =-.137528E-01
 ZBRENT: can't locate minimum, use default step
 trial-energy change:   -0.013753  1 .order   -0.013816   -0.015109   -0.012523
 step:   0.5767(harm=  0.8425)  dis= 0.01590  next Energy=   -60.562445 (dE=-0.441E-01)
 bond charge predicted
       N       E                     dE             d eps       ncg     rms          rms(c)
DAV:   1    -0.605785165900E+02   -0.46479E-01   -0.51383E+00   384   0.139E+01    0.839E-01
DAV:   2    -0.605644769009E+02    0.14040E-01   -0.14142E-01   480   0.238E+00    0.455E-01
DAV:   3    -0.605579305542E+02    0.65463E-02   -0.34022E-02   512   0.105E+00    0.124E-01
DAV:   4    -0.605579169775E+02    0.13577E-04   -0.24753E-03   512   0.291E-01    0.648E-02
DAV:   5    -0.605579865366E+02   -0.69559E-04   -0.24421E-04   376   0.106E-01
  53 F= -.60557987E+02 E0= -.60557700E+02  d E =-.396865E-01
 curvature:  -0.83 expect dE=-0.760E-01 dE for cont linesearch -0.427E-02
 ZBRENT: increasing intervall
 opt :   1.4418  next Energy=   -60.543797 (dE=-0.255E-01)
 bond charge predicted
       N       E                     dE             d eps       ncg     rms          rms(c)
DAV:   1    -0.606227189035E+02   -0.64802E-01   -0.20402E+01   384   0.276E+01    0.168E+00
DAV:   2    -0.605687013572E+02    0.54018E-01   -0.57580E-01   496   0.517E+00    0.933E-01
DAV:   3    -0.605419187041E+02    0.26783E-01   -0.13239E-01   528   0.221E+00    0.254E-01
DAV:   4    -0.605418820084E+02    0.36696E-04   -0.97589E-03   512   0.592E-01    0.134E-01
DAV:   5    -0.605420446491E+02   -0.16264E-03   -0.11222E-03   496   0.213E-01    0.503E-02
DAV:   6    -0.605424175973E+02   -0.37295E-03   -0.17394E-04   368   0.900E-02    0.229E-02
DAV:   7    -0.605428592888E+02   -0.44169E-03   -0.15313E-04   368   0.637E-02    0.124E-02
DAV:   8    -0.605432181912E+02   -0.35890E-03   -0.96865E-05   368   0.489E-02    0.745E-03
DAV:   9    -0.605435560207E+02   -0.33783E-03   -0.15420E-04   384   0.437E-02    0.588E-03
DAV:  10    -0.605436440073E+02   -0.87987E-04   -0.30859E-05   384   0.260E-02
  54 F= -.60543644E+02 E0= -.60543619E+02  d E =-.253440E-01
 curvature:   2.77 expect dE= 0.134E+01 dE for cont linesearch  0.541E-01
 ZBRENT: bracketing found
 ZBRENT: interpolating
 opt :   0.8698  next Energy=   -60.563149 (dE=-0.448E-01)
 bond charge predicted
       N       E                     dE             d eps       ncg     rms          rms(c)
DAV:   1    -0.606094829499E+02   -0.65927E-01   -0.95649E+00   448   0.198E+01    0.114E+00
DAV:   2    -0.605750129608E+02    0.34470E-01   -0.14988E-01   512   0.276E+00    0.573E-01
DAV:   3    -0.605633863047E+02    0.11627E-01   -0.55077E-02   512   0.128E+00    0.152E-01
DAV:   4    -0.605630688210E+02    0.31748E-03   -0.31404E-03   512   0.347E-01    0.752E-02
DAV:   5    -0.605629419734E+02    0.12685E-03   -0.40271E-04   480   0.124E-01    0.262E-02
DAV:   6    -0.605629565019E+02   -0.14528E-04   -0.54654E-05   384   0.558E-02
  55 F= -.60562957E+02 E0= -.60562764E+02  d E =-.446565E-01
 curvature:  -0.26 expect dE=-0.444E-01 dE for cont linesearch -0.793E-06
 trial: gam= 1.46585 g(F)=  0.140E+00 g(S)=  0.274E-01 ort =-0.852E-03 (trialstep = 0.102E+00)
 search vector abs. value=  0.686E+00
 bond charge predicted
       N       E                     dE             d eps       ncg     rms          rms(c)
DAV:   1    -0.605821772662E+02   -0.19235E-01   -0.86861E-01   384   0.533E+00    0.320E-01
DAV:   2    -0.605805140842E+02    0.16632E-02   -0.22874E-02   528   0.917E-01    0.172E-01
DAV:   3    -0.605797081581E+02    0.80593E-03   -0.52059E-03   464   0.412E-01    0.547E-02
DAV:   4    -0.605797036279E+02    0.45302E-05   -0.36106E-04   480   0.119E-01
  56 F= -.60579704E+02 E0= -.60579566E+02  d E =-.167471E-01
 ZBRENT: can't locate minimum, use default step
 trial-energy change:   -0.016747  1 .order   -0.016470   -0.017027   -0.015912
 step:   0.4088(harm=  1.5609)  dis= 0.02020  next Energy=   -60.692983 (dE=-0.130E+00)
 bond charge predicted
       N       E                     dE             d eps       ncg     rms          rms(c)
DAV:   1    -0.606468442332E+02   -0.67136E-01   -0.77528E+00   384   0.158E+01    0.962E-01
DAV:   2    -0.606292430410E+02    0.17601E-01   -0.20664E-01   512   0.294E+00    0.530E-01
DAV:   3    -0.606200279336E+02    0.92151E-02   -0.46474E-02   504   0.129E+00    0.168E-01
DAV:   4    -0.606200109312E+02    0.17002E-04   -0.33352E-03   512   0.356E-01    0.914E-02
DAV:   5    -0.606200835040E+02   -0.72573E-04   -0.50655E-04   512   0.144E-01
  57 F= -.60620084E+02 E0= -.60620058E+02  d E =-.571270E-01
 curvature:  -1.21 expect dE=-0.134E+00 dE for cont linesearch -0.241E-01
 ZBRENT: increasing intervall
 opt :   1.0220  next Energy=   -60.667965 (dE=-0.105E+00)
 bond charge predicted
       N       E                     dE             d eps       ncg     rms          rms(c)
DAV:   1    -0.607742197379E+02   -0.15421E+00   -0.31010E+01   384   0.317E+01    0.196E+00
DAV:   2    -0.607015381051E+02    0.72682E-01   -0.82483E-01   520   0.631E+00    0.108E+00
DAV:   3    -0.606650446508E+02    0.36493E-01   -0.17398E-01   504   0.262E+00    0.347E-01
DAV:   4    -0.606647879291E+02    0.25672E-03   -0.12166E-02   504   0.690E-01    0.187E-01
DAV:   5    -0.606649735844E+02   -0.18566E-03   -0.21194E-03   512   0.290E-01    0.616E-02
DAV:   6    -0.606654324176E+02   -0.45883E-03   -0.29126E-04   368   0.124E-01    0.312E-02
DAV:   7    -0.606660815470E+02   -0.64913E-03   -0.41876E-04   432   0.998E-02    0.204E-02
DAV:   8    -0.606665053899E+02   -0.42384E-03   -0.16865E-04   368   0.758E-02    0.116E-02
DAV:   9    -0.606670091281E+02   -0.50374E-03   -0.31086E-04   416   0.643E-02    0.967E-03
DAV:  10    -0.606671094422E+02   -0.10031E-03   -0.39564E-05   368   0.322E-02    0.516E-03
DAV:  11    -0.606671739582E+02   -0.64516E-04   -0.35631E-05   368   0.248E-02
  58 F= -.60667174E+02 E0= -.60667169E+02  d E =-.104217E+00
 curvature:  -2.41 expect dE=-0.521E+00 dE for cont linesearch -0.434E-02
 trial: gam= 1.06786 g(F)=  0.187E+00 g(S)=  0.300E-01 ort = 0.352E-01 (trialstep = 0.183E+00)
 search vector abs. value=  0.107E+01
 bond charge predicted
       N       E                     dE             d eps       ncg     rms          rms(c)
DAV:   1    -0.607195104594E+02   -0.52401E-01   -0.44711E+00   384   0.120E+01    0.675E-01
DAV:   2    -0.607140510022E+02    0.54595E-02   -0.10661E-01   496   0.210E+00    0.381E-01
DAV:   3    -0.607095236551E+02    0.45273E-02   -0.21687E-02   496   0.923E-01    0.110E-01
DAV:   4    -0.607095029844E+02    0.20671E-04   -0.15639E-03   488   0.247E-01    0.612E-02
DAV:   5    -0.607094987094E+02    0.42750E-05   -0.17299E-04   368   0.931E-02
  59 F= -.60709499E+02 E0= -.60709497E+02  d E =-.423248E-01
 ZBRENT: can't locate minimum, use default step
 trial-energy change:   -0.042325  1 .order   -0.042572   -0.046466   -0.038678
 step:   0.7312(harm=  1.0908)  dis= 0.03955  next Energy=   -60.805802 (dE=-0.139E+00)
 bond charge predicted
       N       E                     dE             d eps       ncg     rms          rms(c)
DAV:   1    -0.608815075076E+02   -0.17200E+00   -0.40251E+01   384   0.363E+01    0.208E+00
DAV:   2    -0.608275624616E+02    0.53945E-01   -0.98196E-01   496   0.696E+00    0.117E+00
DAV:   3    -0.607882293878E+02    0.39333E-01   -0.18221E-01   480   0.286E+00    0.349E-01
DAV:   4    -0.607881180604E+02    0.11133E-03   -0.12410E-02   448   0.726E-01    0.194E-01
DAV:   5    -0.607882899745E+02   -0.17191E-03   -0.17969E-03   480   0.266E-01    0.672E-02
DAV:   6    -0.607887664047E+02   -0.47643E-03   -0.30921E-04   384   0.120E-01    0.299E-02
DAV:   7    -0.607892974344E+02   -0.53103E-03   -0.28599E-04   368   0.884E-02    0.176E-02
DAV:   8    -0.607896715055E+02   -0.37407E-03   -0.13288E-04   352   0.639E-02    0.984E-03
DAV:   9    -0.607900648023E+02   -0.39330E-03   -0.22971E-04   384   0.553E-02    0.830E-03
DAV:  10    -0.607901388833E+02   -0.74081E-04   -0.34302E-05   360   0.301E-02
  60 F= -.60790139E+02 E0= -.60790139E+02  d E =-.122965E+00
 curvature:  -1.94 expect dE=-0.649E+00 dE for cont linesearch -0.114E-01
 ZBRENT: increasing intervall
 opt :   1.8280  next Energy=   -60.732079 (dE=-0.649E-01)
 bond charge predicted
       N       E                     dE             d eps       ncg     rms          rms(c)
DAV:   1    -0.610358548298E+02   -0.24579E+00   -0.17449E+02   384   0.839E+01    0.463E+00
DAV:   2    -0.608624470971E+02    0.17341E+00   -0.50409E+00   496   0.139E+01    0.228E+00
DAV:   3    -0.607228219408E+02    0.13963E+00   -0.67334E-01   544   0.501E+00    0.782E-01
DAV:   4    -0.607187781138E+02    0.40438E-02   -0.44509E-02   544   0.127E+00    0.379E-01
DAV:   5    -0.607182055220E+02    0.57259E-03   -0.58129E-03   480   0.443E-01    0.142E-01
DAV:   6    -0.607190220663E+02   -0.81654E-03   -0.10706E-03   528   0.200E-01    0.552E-02
DAV:   7    -0.607198347770E+02   -0.81271E-03   -0.63959E-04   408   0.127E-01    0.301E-02
DAV:   8    -0.607203632859E+02   -0.52851E-03   -0.21842E-04   384   0.755E-02    0.187E-02
DAV:   9    -0.607209903725E+02   -0.62709E-03   -0.63212E-04   368   0.876E-02    0.142E-02
DAV:  10    -0.607210695827E+02   -0.79210E-04   -0.70965E-05   336   0.438E-02
  61 F= -.60721070E+02 E0= -.60721070E+02  d E =-.538956E-01
 curvature:   9.91 expect dE= 0.274E+02 dE for cont linesearch  0.447E+00
 ZBRENT: bracketing found
 ZBRENT: interpolating
 opt :   1.0218  next Energy=   -60.801663 (dE=-0.134E+00)
 bond charge predicted
       N       E                     dE             d eps       ncg     rms          rms(c)
DAV:   1    -0.608837902415E+02   -0.16280E+00   -0.10688E+02   384   0.704E+01    0.305E+00
DAV:   2    -0.608948381844E+02   -0.11048E-01   -0.32562E+00   480   0.114E+01    0.161E+00
DAV:   3    -0.608058579704E+02    0.88980E-01   -0.41069E-01   512   0.364E+00    0.467E-01
DAV:   4    -0.608025085623E+02    0.33494E-02   -0.21665E-02   496   0.970E-01    0.241E-01
DAV:   5    -0.608009352367E+02    0.15733E-02   -0.40894E-03   544   0.373E-01    0.865E-02
DAV:   6    -0.608007720076E+02    0.16323E-03   -0.54681E-04   480   0.158E-01    0.397E-02
DAV:   7    -0.608007827597E+02   -0.10752E-04   -0.20722E-04   376   0.806E-02
  62 F= -.60800783E+02 E0= -.60800783E+02  d E =-.133609E+00
 curvature:  -0.26 expect dE=-0.173E+00 dE for cont linesearch -0.204E-06
 trial: gam= 3.49126 g(F)=  0.638E+00 g(S)=  0.397E-01 ort =-0.926E-03 (trialstep = 0.274E-01)
 search vector abs. value=  0.138E+02
 bond charge predicted
       N       E                     dE             d eps       ncg     rms          rms(c)
DAV:   1    -0.608219135106E+02   -0.21142E-01   -0.13163E+00   416   0.632E+00    0.343E-01
DAV:   2    -0.608210857584E+02    0.82775E-03   -0.29716E-02   480   0.105E+00    0.193E-01
DAV:   3    -0.608203635634E+02    0.72220E-03   -0.48629E-03   464   0.445E-01    0.545E-02
DAV:   4    -0.608204561431E+02   -0.92580E-04   -0.30295E-04   424   0.114E-01
  63 F= -.60820456E+02 E0= -.60820456E+02  d E =-.196734E-01
 trial-energy change:   -0.019673  1 .order   -0.018475   -0.018442   -0.018508
 step:   0.0597(harm=  0.1094)  dis= 0.01143  next Energy=   -60.833397 (dE=-0.326E-01)
 bond charge predicted
       N       E                     dE             d eps       ncg     rms          rms(c)
DAV:   1    -0.608455463513E+02   -0.25183E-01   -0.18427E+00   416   0.748E+00    0.406E-01
DAV:   2    -0.608438286125E+02    0.17177E-02   -0.41515E-02   496   0.124E+00    0.229E-01
DAV:   3    -0.608422054422E+02    0.16232E-02   -0.72304E-03   464   0.538E-01    0.655E-02
DAV:   4    -0.608422210555E+02   -0.15613E-04   -0.45324E-04   496   0.138E-01
  64 F= -.60842221E+02 E0= -.60842221E+02  d E =-.414383E-01
 curvature:  -0.66 expect dE=-0.431E+00 dE for cont linesearch -0.210E-01
 ZBRENT: increasing intervall
 opt :   0.1245  next Energy=   -60.884195 (dE=-0.834E-01)
 bond charge predicted
       N       E                     dE             d eps       ncg     rms          rms(c)
DAV:   1    -0.608966986567E+02   -0.54493E-01   -0.73330E+00   384   0.149E+01    0.816E-01
DAV:   2    -0.608888129182E+02    0.78857E-02   -0.16204E-01   512   0.259E+00    0.466E-01
DAV:   3    -0.608822336759E+02    0.65792E-02   -0.29075E-02   512   0.112E+00    0.132E-01
DAV:   4    -0.608823890846E+02   -0.15541E-03   -0.19609E-03   480   0.281E-01    0.717E-02
DAV:   5    -0.608825866139E+02   -0.19753E-03   -0.28662E-04   368   0.116E-01    0.233E-02
DAV:   6    -0.608828148507E+02   -0.22824E-03   -0.66894E-05   344   0.647E-02    0.120E-02
DAV:   7    -0.608830821751E+02   -0.26732E-03   -0.74111E-05   336   0.446E-02    0.689E-03
DAV:   8    -0.608832503495E+02   -0.16817E-03   -0.41312E-05   336   0.314E-02    0.442E-03
DAV:   9    -0.608833952665E+02   -0.14492E-03   -0.52752E-05   336   0.278E-02    0.292E-03
DAV:  10    -0.608834356848E+02   -0.40418E-04   -0.16590E-05   344   0.183E-02
  65 F= -.60883436E+02 E0= -.60883436E+02  d E =-.826529E-01
 curvature:  -1.32 expect dE=-0.836E+00 dE for cont linesearch -0.346E-01
 ZBRENT: increasing intervall
 opt :   0.2541  next Energy=   -60.953512 (dE=-0.153E+00)
 bond charge predicted
       N       E                     dE             d eps       ncg     rms          rms(c)
DAV:   1    -0.610092031144E+02   -0.12581E+00   -0.29413E+01   384   0.300E+01    0.169E+00
DAV:   2    -0.609761262273E+02    0.33077E-01   -0.67549E-01   496   0.551E+00    0.941E-01
DAV:   3    -0.609506264214E+02    0.25500E-01   -0.11419E-01   504   0.226E+00    0.269E-01
DAV:   4    -0.609505766407E+02    0.49781E-04   -0.75762E-03   472   0.564E-01    0.145E-01
DAV:   5    -0.609507723319E+02   -0.19569E-03   -0.11423E-03   496   0.215E-01    0.519E-02
DAV:   6    -0.609511858506E+02   -0.41352E-03   -0.17280E-04   352   0.974E-02    0.238E-02
DAV:   7    -0.609516025233E+02   -0.41667E-03   -0.17474E-04   368   0.721E-02    0.126E-02
DAV:   8    -0.609518885514E+02   -0.28603E-03   -0.91235E-05   336   0.525E-02    0.778E-03
DAV:   9    -0.609521537515E+02   -0.26520E-03   -0.13329E-04   336   0.419E-02    0.567E-03
DAV:  10    -0.609522155993E+02   -0.61848E-04   -0.31384E-05   352   0.271E-02
  66 F= -.60952216E+02 E0= -.60952216E+02  d E =-.151433E+00
 curvature:  -2.67 expect dE=-0.168E+01 dE for cont linesearch -0.391E-01
 ZBRENT: increasing intervall
 opt :   0.5132  next Energy=   -61.029317 (dE=-0.229E+00)
 bond charge predicted
       N       E                     dE             d eps       ncg     rms          rms(c)
DAV:   1    -0.612097011765E+02   -0.25755E+00   -0.12480E+02   384   0.675E+01    0.370E+00
DAV:   2    -0.611012772248E+02    0.10842E+00   -0.34579E+00   512   0.115E+01    0.186E+00
DAV:   3    -0.610086349392E+02    0.92642E-01   -0.44825E-01   560   0.414E+00    0.598E-01
DAV:   4    -0.610064897266E+02    0.21452E-02   -0.28304E-02   528   0.101E+00    0.295E-01
DAV:   5    -0.610064214506E+02    0.68276E-04   -0.43051E-03   496   0.391E-01    0.112E-01
DAV:   6    -0.610072815668E+02   -0.86012E-03   -0.71535E-04   496   0.173E-01    0.460E-02
DAV:   7    -0.610080510895E+02   -0.76952E-03   -0.52067E-04   432   0.113E-01    0.247E-02
DAV:   8    -0.610085305169E+02   -0.47943E-03   -0.20343E-04   384   0.741E-02    0.162E-02
DAV:   9    -0.610090160267E+02   -0.48551E-03   -0.45792E-04   384   0.735E-02    0.120E-02
DAV:  10    -0.610090796277E+02   -0.63601E-04   -0.46824E-05   368   0.354E-02
  67 F= -.61009080E+02 E0= -.61009080E+02  d E =-.208297E+00
 curvature:  -5.25 expect dE=-0.409E+01 dE for cont linesearch -0.190E-02
 trial: gam= 0.42725 g(F)=  0.573E+00 g(S)=  0.205E+00 ort =-0.706E-01 (trialstep = 0.125E+00)
 search vector abs. value=  0.323E+01
 bond charge predicted
       N       E                     dE             d eps       ncg     rms          rms(c)
DAV:   1    -0.610923116255E+02   -0.83296E-01   -0.62964E+00   384   0.148E+01    0.720E-01
DAV:   2    -0.610871187359E+02    0.51929E-02   -0.14180E-01   480   0.248E+00    0.386E-01
DAV:   3    -0.610826361606E+02    0.44826E-02   -0.24508E-02   544   0.944E-01    0.140E-01
DAV:   4    -0.610824311238E+02    0.20504E-03   -0.24189E-03   496   0.303E-01    0.731E-02
DAV:   5    -0.610824065076E+02    0.24616E-04   -0.39939E-04   464   0.115E-01
  68 F= -.61082407E+02 E0= -.61082406E+02  d E =-.733269E-01
 trial-energy change:   -0.073327  1 .order   -0.073761   -0.093119   -0.054403
 step:   0.3387(harm=  0.2995)  dis= 0.03066  next Energy=   -61.126985 (dE=-0.118E+00)
 bond charge predicted
       N       E                     dE             d eps       ncg     rms          rms(c)
DAV:   1    -0.611441705213E+02   -0.61739E-01   -0.18672E+01   384   0.258E+01    0.125E+00
DAV:   2    -0.611306783146E+02    0.13492E-01   -0.45266E-01   496   0.438E+00    0.663E-01
DAV:   3    -0.611181739279E+02    0.12504E-01   -0.71088E-02   576   0.161E+00    0.243E-01
DAV:   4    -0.611178091513E+02    0.36478E-03   -0.70099E-03   496   0.496E-01    0.125E-01
DAV:   5    -0.611179771249E+02   -0.16797E-03   -0.11621E-03   480   0.194E-01    0.438E-02
DAV:   6    -0.611183182153E+02   -0.34109E-03   -0.16247E-04   352   0.819E-02    0.214E-02
DAV:   7    -0.611186645888E+02   -0.34637E-03   -0.13727E-04   336   0.638E-02    0.110E-02
DAV:   8    -0.611189124933E+02   -0.24790E-03   -0.85329E-05   288   0.454E-02    0.785E-03
DAV:   9    -0.611191468526E+02   -0.23436E-03   -0.15987E-04   336   0.422E-02    0.467E-03
DAV:  10    -0.611191773186E+02   -0.30466E-04   -0.20079E-05   368   0.234E-02
  69 F= -.61119177E+02 E0= -.61119177E+02  d E =-.110098E+00
 curvature:  -0.61 expect dE=-0.186E+00 dE for cont linesearch -0.175E-02
 ZBRENT: interpolating
 opt :   0.3001  next Energy=   -61.121030 (dE=-0.112E+00)
 bond charge predicted
       N       E                     dE             d eps       ncg     rms          rms(c)
DAV:   1    -0.611218842764E+02   -0.27374E-02   -0.61124E-01   384   0.468E+00    0.220E-01
DAV:   2    -0.611215046143E+02    0.37966E-03   -0.14407E-02   512   0.761E-01    0.120E-01
DAV:   3    -0.611210596267E+02    0.44499E-03   -0.23295E-03   576   0.287E-01    0.428E-02
DAV:   4    -0.611210334909E+02    0.26136E-04   -0.20683E-04   384   0.904E-02
  70 F= -.61121033E+02 E0= -.61121033E+02  d E =-.111954E+00
 curvature:  -0.65 expect dE=-0.169E+00 dE for cont linesearch -0.167E-05
 trial: gam= 0.15731 g(F)=  0.227E+00 g(S)=  0.335E-01 ort =-0.289E-02 (trialstep = 0.160E+00)
 search vector abs. value=  0.340E+00
 bond charge predicted
       N       E                     dE             d eps       ncg     rms          rms(c)
DAV:   1    -0.611554952667E+02   -0.34436E-01   -0.96539E-01   384   0.701E+00    0.301E-01
DAV:   2    -0.611555874564E+02   -0.92190E-04   -0.21842E-02   512   0.983E-01    0.187E-01
DAV:   3    -0.611548204182E+02    0.76704E-03   -0.23395E-03   512   0.333E-01    0.564E-02
DAV:   4    -0.611548043523E+02    0.16066E-04   -0.38086E-04   480   0.116E-01
  71 F= -.61154804E+02 E0= -.61154804E+02  d E =-.337709E-01
 trial-energy change:   -0.033771  1 .order   -0.033662   -0.041519   -0.025804
 step:   0.4218(harm=  0.4218)  dis= 0.01418  next Energy=   -61.175880 (dE=-0.548E-01)
 bond charge predicted
       N       E                     dE             d eps       ncg     rms          rms(c)
DAV:   1    -0.611788256393E+02   -0.24005E-01   -0.26073E+00   384   0.115E+01    0.491E-01
DAV:   2    -0.611789873103E+02   -0.16167E-03   -0.59105E-02   512   0.161E+00    0.307E-01
DAV:   3    -0.611767635313E+02    0.22238E-02   -0.62364E-03   512   0.545E-01    0.948E-02
DAV:   4    -0.611767131808E+02    0.50350E-04   -0.10557E-03   496   0.194E-01    0.397E-02
DAV:   5    -0.611767329575E+02   -0.19777E-04   -0.57361E-05   368   0.542E-02
  72 F= -.61176733E+02 E0= -.61176733E+02  d E =-.556995E-01
 curvature:  -0.28 expect dE=-0.429E-01 dE for cont linesearch -0.437E-04
 trial: gam= 0.57214 g(F)=  0.127E+00 g(S)=  0.290E-01 ort = 0.734E-02 (trialstep = 0.212E+00)
 search vector abs. value=  0.275E+00
 bond charge predicted
       N       E                     dE             d eps       ncg     rms          rms(c)
DAV:   1    -0.612064029231E+02   -0.29690E-01   -0.13891E+00   384   0.815E+00    0.338E-01
DAV:   2    -0.612056876836E+02    0.71524E-03   -0.26898E-02   496   0.110E+00    0.205E-01
DAV:   3    -0.612045615389E+02    0.11261E-02   -0.33425E-03   512   0.355E-01    0.793E-02
DAV:   4    -0.612045560610E+02    0.54779E-05   -0.43582E-04   512   0.123E-01
  73 F= -.61204556E+02 E0= -.61204556E+02  d E =-.278231E-01
 trial-energy change:   -0.027823  1 .order   -0.027738   -0.033954   -0.021521
 step:   0.5792(harm=  0.5792)  dis= 0.03110  next Energy=   -61.223097 (dE=-0.464E-01)
 bond charge predicted
       N       E                     dE             d eps       ncg     rms          rms(c)
DAV:   1    -0.612285522497E+02   -0.23991E-01   -0.41879E+00   384   0.142E+01    0.593E-01
DAV:   2    -0.612260781268E+02    0.24741E-02   -0.80839E-02   496   0.192E+00    0.362E-01
DAV:   3    -0.612224732314E+02    0.36049E-02   -0.11341E-02   496   0.647E-01    0.129E-01
DAV:   4    -0.612224642787E+02    0.89527E-05   -0.13045E-03   512   0.217E-01    0.621E-02
DAV:   5    -0.612224760292E+02   -0.11751E-04   -0.81804E-05   352   0.637E-02
  74 F= -.61222476E+02 E0= -.61222476E+02  d E =-.457431E-01
 curvature:  -0.50 expect dE=-0.543E-01 dE for cont linesearch -0.403E-04
 trial: gam= 0.79710 g(F)=  0.746E-01 g(S)=  0.344E-01 ort =-0.472E-02 (trialstep = 0.284E+00)
 search vector abs. value=  0.277E+00
 bond charge predicted
       N       E                     dE             d eps       ncg     rms          rms(c)
DAV:   1    -0.612476787906E+02   -0.25215E-01   -0.19599E+00   384   0.101E+01    0.500E-01
DAV:   2    -0.612448998207E+02    0.27790E-02   -0.41571E-02   528   0.136E+00    0.291E-01
DAV:   3    -0.612427453573E+02    0.21545E-02   -0.84745E-03   496   0.572E-01    0.924E-02
DAV:   4    -0.612426812932E+02    0.64064E-04   -0.94708E-04   512   0.200E-01
  75 F= -.61242681E+02 E0= -.61242681E+02  d E =-.202053E-01
 trial-energy change:   -0.020205  1 .order   -0.020259   -0.029938   -0.010580
 step:   0.4398(harm=  0.4398)  dis= 0.01879  next Energy=   -61.245626 (dE=-0.232E-01)
 bond charge predicted
       N       E                     dE             d eps       ncg     rms          rms(c)
DAV:   1    -0.612470583076E+02   -0.43130E-02   -0.58420E-01   384   0.548E+00    0.275E-01
DAV:   2    -0.612462392622E+02    0.81905E-03   -0.12701E-02   528   0.755E-01    0.161E-01
DAV:   3    -0.612455990493E+02    0.64021E-03   -0.25213E-03   496   0.314E-01    0.540E-02
DAV:   4    -0.612455827467E+02    0.16303E-04   -0.28843E-04   480   0.112E-01
  76 F= -.61245583E+02 E0= -.61245582E+02  d E =-.231067E-01
 curvature:  -0.58 expect dE=-0.574E-01 dE for cont linesearch -0.155E-06
 trial: gam= 0.84778 g(F)=  0.839E-01 g(S)=  0.156E-01 ort = 0.272E-03 (trialstep = 0.292E+00)
 search vector abs. value=  0.299E+00
 bond charge predicted
       N       E                     dE             d eps       ncg     rms          rms(c)
DAV:   1    -0.612716540093E+02   -0.26055E-01   -0.19703E+00   384   0.102E+01    0.573E-01
DAV:   2    -0.612669093879E+02    0.47446E-02   -0.42184E-02   512   0.137E+00    0.322E-01
DAV:   3    -0.612641897675E+02    0.27196E-02   -0.97495E-03   480   0.610E-01    0.882E-02
DAV:   4    -0.612641119504E+02    0.77817E-04   -0.78898E-04   512   0.184E-01
  77 F= -.61264112E+02 E0= -.61264111E+02  d E =-.185292E-01
 trial-energy change:   -0.018529  1 .order   -0.018578   -0.029113   -0.008042
 step:   0.4036(harm=  0.4036)  dis= 0.01366  next Energy=   -61.265695 (dE=-0.201E-01)
 bond charge predicted
       N       E                     dE             d eps       ncg     rms          rms(c)
DAV:   1    -0.612667960608E+02   -0.26063E-02   -0.28594E-01   384   0.388E+00    0.219E-01
DAV:   2    -0.612661031528E+02    0.69291E-03   -0.62027E-03   512   0.523E-01    0.124E-01
DAV:   3    -0.612657180913E+02    0.38506E-03   -0.13915E-03   512   0.231E-01    0.360E-02
DAV:   4    -0.612657134588E+02    0.46325E-05   -0.10712E-04   376   0.707E-02
  78 F= -.61265713E+02 E0= -.61265713E+02  d E =-.201307E-01
 curvature:  -0.60 expect dE=-0.406E-01 dE for cont linesearch -0.790E-06
 trial: gam= 0.70439 g(F)=  0.618E-01 g(S)=  0.532E-02 ort = 0.625E-03 (trialstep = 0.314E+00)
 search vector abs. value=  0.216E+00
 bond charge predicted
       N       E                     dE             d eps       ncg     rms          rms(c)
DAV:   1    -0.612862614180E+02   -0.20543E-01   -0.15937E+00   384   0.899E+00    0.518E-01
DAV:   2    -0.612825982542E+02    0.36632E-02   -0.33616E-02   512   0.124E+00    0.297E-01
DAV:   3    -0.612802499690E+02    0.23483E-02   -0.74239E-03   504   0.527E-01    0.818E-02
DAV:   4    -0.612801902437E+02    0.59725E-04   -0.74985E-04   512   0.175E-01
  79 F= -.61280190E+02 E0= -.61280189E+02  d E =-.144768E-01
 trial-energy change:   -0.014477  1 .order   -0.014530   -0.021252   -0.007808
 step:   0.4970(harm=  0.4970)  dis= 0.01211  next Energy=   -61.282511 (dE=-0.168E-01)
 bond charge predicted
       N       E                     dE             d eps       ncg     rms          rms(c)
DAV:   1    -0.612845191558E+02   -0.42692E-02   -0.53675E-01   384   0.521E+00    0.303E-01
DAV:   2    -0.612832746678E+02    0.12445E-02   -0.11374E-02   512   0.719E-01    0.174E-01
DAV:   3    -0.612824804259E+02    0.79424E-03   -0.24777E-03   504   0.306E-01    0.493E-02
DAV:   4    -0.612824694478E+02    0.10978E-04   -0.25041E-04   464   0.103E-01
  80 F= -.61282469E+02 E0= -.61282468E+02  d E =-.167560E-01
 curvature:  -0.79 expect dE=-0.272E-01 dE for cont linesearch -0.864E-08
 trial: gam= 0.51957 g(F)=  0.305E-01 g(S)=  0.371E-02 ort = 0.485E-04 (trialstep = 0.351E+00)
 search vector abs. value=  0.927E-01
 bond charge predicted
       N       E                     dE             d eps       ncg     rms          rms(c)
DAV:   1    -0.612920854953E+02   -0.96051E-02   -0.99016E-01   384   0.682E+00    0.322E-01
DAV:   2    -0.612916590161E+02    0.42648E-03   -0.19948E-02   528   0.988E-01    0.193E-01
DAV:   3    -0.612907617582E+02    0.89726E-03   -0.24162E-03   512   0.321E-01    0.700E-02
DAV:   4    -0.612907254007E+02    0.36358E-04   -0.37446E-04   456   0.117E-01
  81 F= -.61290725E+02 E0= -.61290725E+02  d E =-.825595E-02
 trial-energy change:   -0.008256  1 .order   -0.008372   -0.012031   -0.004713
 step:   0.5769(harm=  0.5769)  dis= 0.01115  next Energy=   -61.292359 (dE=-0.989E-02)
 bond charge predicted
       N       E                     dE             d eps       ncg     rms          rms(c)
DAV:   1    -0.612926815552E+02   -0.19198E-02   -0.41028E-01   384   0.439E+00    0.208E-01
DAV:   2    -0.612925004326E+02    0.18112E-03   -0.82383E-03   528   0.633E-01    0.125E-01
DAV:   3    -0.612921370414E+02    0.36339E-03   -0.10116E-03   512   0.207E-01    0.458E-02
DAV:   4    -0.612921361871E+02    0.85426E-06   -0.14520E-04   368   0.766E-02
  82 F= -.61292136E+02 E0= -.61292136E+02  d E =-.966674E-02
 curvature:  -0.78 expect dE=-0.223E-01 dE for cont linesearch -0.311E-05
 trial: gam= 0.85792 g(F)=  0.250E-01 g(S)=  0.361E-02 ort =-0.608E-03 (trialstep = 0.383E+00)
 search vector abs. value=  0.958E-01
 bond charge predicted
       N       E                     dE             d eps       ncg     rms          rms(c)
DAV:   1    -0.613018697819E+02   -0.97327E-02   -0.11332E+00   384   0.684E+00    0.343E-01
DAV:   2    -0.613016176207E+02    0.25216E-03   -0.22099E-02   528   0.102E+00    0.201E-01
DAV:   3    -0.613005891800E+02    0.10284E-02   -0.26383E-03   528   0.340E-01    0.604E-02
DAV:   4    -0.613005725438E+02    0.16636E-04   -0.33608E-04   440   0.121E-01
  83 F= -.61300573E+02 E0= -.61300572E+02  d E =-.843636E-02
 trial-energy change:   -0.008436  1 .order   -0.008764   -0.010772   -0.006755
 step:   1.0276(harm=  1.0276)  dis= 0.02534  next Energy=   -61.306579 (dE=-0.144E-01)
 bond charge predicted
       N       E                     dE             d eps       ncg     rms          rms(c)
DAV:   1    -0.613091366116E+02   -0.85474E-02   -0.32119E+00   384   0.115E+01    0.578E-01
DAV:   2    -0.613084195961E+02    0.71702E-03   -0.62968E-02   528   0.174E+00    0.340E-01
DAV:   3    -0.613055686930E+02    0.28509E-02   -0.76810E-03   512   0.585E-01    0.101E-01
DAV:   4    -0.613055229759E+02    0.45717E-04   -0.10156E-03   472   0.208E-01    0.486E-02
DAV:   5    -0.613056447574E+02   -0.12178E-03   -0.15007E-04   352   0.789E-02    0.181E-02
DAV:   6    -0.613057764919E+02   -0.13173E-03   -0.45518E-05   336   0.480E-02    0.726E-03
DAV:   7    -0.613059056603E+02   -0.12917E-03   -0.30904E-05   320   0.300E-02    0.465E-03
DAV:   8    -0.613060179739E+02   -0.11231E-03   -0.36389E-05   336   0.251E-02    0.278E-03
DAV:   9    -0.613060623647E+02   -0.44391E-04   -0.15607E-05   352   0.164E-02
  84 F= -.61306062E+02 E0= -.61306062E+02  d E =-.139262E-01
 curvature:  -1.75 expect dE=-0.845E-01 dE for cont linesearch -0.135E-04
 trial: gam= 1.63800 g(F)=  0.440E-01 g(S)=  0.429E-02 ort =-0.859E-03 (trialstep = 0.162E+00)
 search vector abs. value=  0.302E+00
 bond charge predicted
       N       E                     dE             d eps       ncg     rms          rms(c)
DAV:   1    -0.613139080393E+02   -0.78901E-02   -0.67573E-01   384   0.508E+00    0.272E-01
DAV:   2    -0.613134935393E+02    0.41450E-03   -0.12563E-02   512   0.742E-01    0.156E-01
DAV:   3    -0.613127892933E+02    0.70425E-03   -0.18258E-03   480   0.258E-01    0.417E-02
DAV:   4    -0.613127663115E+02    0.22982E-04   -0.13847E-04   376   0.867E-02
  85 F= -.61312766E+02 E0= -.61312766E+02  d E =-.670395E-02
 ZBRENT: can't locate minimum, use default step
 trial-energy change:   -0.006704  1 .order   -0.006836   -0.007597   -0.006074
 step:   0.6488(harm=  0.8089)  dis= 0.03182  next Energy=   -61.325008 (dE=-0.189E-01)
 bond charge predicted
       N       E                     dE             d eps       ncg     rms          rms(c)
DAV:   1    -0.613331269511E+02   -0.20338E-01   -0.60815E+00   384   0.153E+01    0.817E-01
DAV:   2    -0.613288893836E+02    0.42376E-02   -0.11363E-01   512   0.223E+00    0.469E-01
DAV:   3    -0.613229462794E+02    0.59431E-02   -0.16080E-02   496   0.768E-01    0.129E-01
DAV:   4    -0.613229132241E+02    0.33055E-04   -0.13759E-03   464   0.254E-01    0.565E-02
DAV:   5    -0.613231192040E+02   -0.20598E-03   -0.21845E-04   344   0.936E-02    0.199E-02
DAV:   6    -0.613233309442E+02   -0.21174E-03   -0.64092E-05   320   0.566E-02    0.978E-03
DAV:   7    -0.613235244075E+02   -0.19346E-03   -0.48116E-05   312   0.369E-02    0.574E-03
DAV:   8    -0.613236935732E+02   -0.16917E-03   -0.62203E-05   312   0.326E-02    0.390E-03
DAV:   9    -0.613237523447E+02   -0.58772E-04   -0.22161E-05   352   0.206E-02
  86 F= -.61323752E+02 E0= -.61323752E+02  d E =-.176900E-01
 curvature:  -2.45 expect dE=-0.133E+00 dE for cont linesearch -0.469E-03
 trial: gam= 0.94201 g(F)=  0.432E-01 g(S)=  0.111E-01 ort = 0.761E-02 (trialstep = 0.233E+00)
 search vector abs. value=  0.337E+00
 bond charge predicted
       N       E                     dE             d eps       ncg     rms          rms(c)
DAV:   1    -0.613379213565E+02   -0.14228E-01   -0.17523E+00   384   0.804E+00    0.387E-01
DAV:   2    -0.613376319881E+02    0.28937E-03   -0.34064E-02   504   0.119E+00    0.225E-01
DAV:   3    -0.613361814512E+02    0.14505E-02   -0.42627E-03   464   0.411E-01    0.577E-02
DAV:   4    -0.613361490951E+02    0.32356E-04   -0.30305E-04   400   0.115E-01
  87 F= -.61336149E+02 E0= -.61336148E+02  d E =-.123968E-01
 ZBRENT: can't locate minimum, use default step
 trial-energy change:   -0.012397  1 .order   -0.012631   -0.014311   -0.010951
 step:   0.9316(harm=  0.9918)  dis= 0.04615  next Energy=   -61.354224 (dE=-0.305E-01)
 bond charge predicted
       N       E                     dE             d eps       ncg     rms          rms(c)
DAV:   1    -0.613683989923E+02   -0.32218E-01   -0.15760E+01   384   0.242E+01    0.117E+00
DAV:   2    -0.613643572626E+02    0.40417E-02   -0.30984E-01   512   0.374E+00    0.682E-01
DAV:   3    -0.613521507992E+02    0.12206E-01   -0.37868E-02   480   0.130E+00    0.178E-01
DAV:   4    -0.613520798588E+02    0.70940E-04   -0.29494E-03   472   0.351E-01    0.835E-02
DAV:   5    -0.613524153475E+02   -0.33549E-03   -0.42979E-04   456   0.127E-01    0.311E-02
DAV:   6    -0.613527762643E+02   -0.36092E-03   -0.89025E-05   320   0.566E-02    0.140E-02
DAV:   7    -0.613531172805E+02   -0.34102E-03   -0.10291E-04   296   0.473E-02    0.891E-03
[...]
 trial: gam= 1.23003 g(F)=  0.120E-01 g(S)=  0.389E-02 ort = 0.445E-04 (trialstep = 0.180E+00)
 search vector abs. value=  0.661E-01
 bond charge predicted
       N       E                     dE             d eps       ncg     rms          rms(c)
DAV:   1    -0.615690986164E+02   -0.32010E-02   -0.15361E-01   384   0.282E+00    0.167E-01
DAV:   2    -0.615685635444E+02    0.53507E-03   -0.32316E-03   536   0.379E-01    0.961E-02
DAV:   3    -0.615682945840E+02    0.26896E-03   -0.10375E-03   512   0.186E-01    0.278E-02
DAV:   4    -0.615683053316E+02   -0.10748E-04   -0.71336E-05   328   0.570E-02
 109 F= -.61568305E+02 E0= -.61568305E+02  d E =-.241841E-02
 trial-energy change:   -0.002418  1 .order   -0.002412   -0.002870   -0.001954
 step:   0.5637(harm=  0.5637)  dis= 0.01067  next Energy=   -61.570384 (dE=-0.450E-02)
 bond charge predicted
       N       E                     dE             d eps       ncg     rms          rms(c)
DAV:   1    -0.615738993308E+02   -0.56047E-02   -0.70289E-01   384   0.602E+00    0.358E-01
DAV:   2    -0.615714045016E+02    0.24948E-02   -0.14981E-02   512   0.812E-01    0.204E-01
DAV:   3    -0.615701561202E+02    0.12484E-02   -0.47647E-03   512   0.403E-01    0.593E-02
DAV:   4    -0.615701475942E+02    0.85260E-05   -0.34436E-04   408   0.122E-01
 110 F= -.61570148E+02 E0= -.61570147E+02  d E =-.426067E-02
 curvature:  -1.17 expect dE=-0.130E-01 dE for cont linesearch -0.264E-05
 trial: gam= 0.73811 g(F)=  0.922E-02 g(S)=  0.193E-02 ort =-0.387E-03 (trialstep = 0.257E+00)
 search vector abs. value=  0.466E-01
 bond charge predicted
       N       E                     dE             d eps       ncg     rms          rms(c)
DAV:   1    -0.615729281012E+02   -0.27720E-02   -0.22819E-01   384   0.335E+00    0.209E-01
DAV:   2    -0.615720474489E+02    0.88065E-03   -0.50690E-03   504   0.495E-01    0.120E-01
DAV:   3    -0.615715924144E+02    0.45503E-03   -0.17615E-03   512   0.237E-01    0.332E-02
DAV:   4    -0.615716051793E+02   -0.12765E-04   -0.11039E-04   328   0.724E-02
 111 F= -.61571605E+02 E0= -.61571605E+02  d E =-.145759E-02
 trial-energy change:   -0.001458  1 .order   -0.001524   -0.002789   -0.000259
 step:   0.2830(harm=  0.2830)  dis= 0.00365  next Energy=   -61.571685 (dE=-0.154E-02)
 bond charge predicted
       N       E                     dE             d eps       ncg     rms          rms(c)
DAV:   1    -0.615716603282E+02   -0.67914E-04   -0.24821E-03   464   0.348E-01    0.222E-02
DAV:   2    -0.615716572362E+02    0.30920E-05   -0.52426E-05   368   0.538E-02
 112 F= -.61571657E+02 E0= -.61571657E+02  d E =-.150964E-02
 curvature:  -0.61 expect dE=-0.429E-02 dE for cont linesearch -0.645E-05
 trial: gam= 0.55294 g(F)=  0.632E-02 g(S)=  0.741E-03 ort = 0.704E-03 (trialstep = 0.262E+00)
 search vector abs. value=  0.221E-01
 bond charge predicted
       N       E                     dE             d eps       ncg     rms          rms(c)
DAV:   1    -0.615737599349E+02   -0.20996E-02   -0.11073E-01   384   0.238E+00    0.135E-01
DAV:   2    -0.615734688736E+02    0.29106E-03   -0.20320E-03   512   0.306E-01    0.790E-02
DAV:   3    -0.615732898859E+02    0.17899E-03   -0.49603E-04   512   0.135E-01    0.192E-02
DAV:   4    -0.615732943233E+02   -0.44373E-05   -0.33256E-05   344   0.401E-02
 113 F= -.61573294E+02 E0= -.61573294E+02  d E =-.163709E-02
 trial-energy change:   -0.001637  1 .order   -0.001701   -0.001953   -0.001449
 step:   1.0148(harm=  1.0148)  dis= 0.00641  next Energy=   -61.575440 (dE=-0.378E-02)
 bond charge predicted
       N       E                     dE             d eps       ncg     rms          rms(c)
DAV:   1    -0.615795400599E+02   -0.62502E-02   -0.92315E-01   384   0.684E+00    0.391E-01
DAV:   2    -0.615771058607E+02    0.24342E-02   -0.17003E-02   512   0.876E-01    0.227E-01
DAV:   3    -0.615756283271E+02    0.14775E-02   -0.41207E-03   504   0.392E-01    0.559E-02
DAV:   4    -0.615756203487E+02    0.79784E-05   -0.29934E-04   424   0.118E-01
 114 F= -.61575620E+02 E0= -.61575620E+02  d E =-.396311E-02
 curvature:  -1.50 expect dE=-0.747E-02 dE for cont linesearch -0.900E-04
 trial: gam= 0.71402 g(F)=  0.335E-02 g(S)=  0.162E-02 ort = 0.115E-02 (trialstep = 0.412E+00)
 search vector abs. value=  0.179E-01
 bond charge predicted
       N       E                     dE             d eps       ncg     rms          rms(c)
DAV:   1    -0.615778921612E+02   -0.22638E-02   -0.23058E-01   384   0.345E+00    0.180E-01
DAV:   2    -0.615775724341E+02    0.31973E-03   -0.43450E-03   536   0.464E-01    0.105E-01
DAV:   3    -0.615772997474E+02    0.27269E-03   -0.83784E-04   512   0.191E-01    0.317E-02
DAV:   4    -0.615773024617E+02   -0.27143E-05   -0.86034E-05   352   0.648E-02
 115 F= -.61577302E+02 E0= -.61577302E+02  d E =-.168211E-02
 trial-energy change:   -0.001682  1 .order   -0.001696   -0.002389   -0.001002
 step:   0.7106(harm=  0.7106)  dis= 0.00639  next Energy=   -61.577678 (dE=-0.206E-02)
 bond charge predicted
       N       E                     dE             d eps       ncg     rms          rms(c)
DAV:   1    -0.615780161615E+02   -0.71641E-03   -0.12108E-01   384   0.250E+00    0.129E-01
DAV:   2    -0.615778474826E+02    0.16868E-03   -0.22943E-03   528   0.339E-01    0.757E-02
DAV:   3    -0.615777080798E+02    0.13940E-03   -0.46846E-04   512   0.142E-01    0.236E-02
DAV:   4    -0.615777099517E+02   -0.18719E-05   -0.48813E-05   312   0.487E-02
 116 F= -.61577710E+02 E0= -.61577710E+02  d E =-.208960E-02
 curvature:  -1.10 expect dE=-0.673E-02 dE for cont linesearch -0.106E-05
 trial: gam= 1.43489 g(F)=  0.504E-02 g(S)=  0.109E-02 ort = 0.131E-03 (trialstep = 0.195E+00)
 search vector abs. value=  0.433E-01
 bond charge predicted
       N       E                     dE             d eps       ncg     rms          rms(c)
DAV:   1    -0.615790478782E+02   -0.13398E-02   -0.12077E-01   384   0.243E+00    0.128E-01
DAV:   2    -0.615788964598E+02    0.15142E-03   -0.20943E-03   512   0.329E-01    0.764E-02
DAV:   3    -0.615787295193E+02    0.16694E-03   -0.29393E-04   416   0.119E-01    0.174E-02
DAV:   4    -0.615787365538E+02   -0.70346E-05   -0.45097E-05   296   0.542E-02
 117 F= -.61578737E+02 E0= -.61578736E+02  d E =-.102660E-02
 trial-energy change:   -0.001027  1 .order   -0.001045   -0.001232   -0.000859
 step:   0.6430(harm=  0.6430)  dis= 0.00927  next Energy=   -61.579743 (dE=-0.203E-02)
 bond charge predicted
       N       E                     dE             d eps       ncg     rms          rms(c)
DAV:   1    -0.615814047478E+02   -0.26752E-02   -0.64203E-01   384   0.560E+00    0.296E-01
DAV:   2    -0.615806380046E+02    0.76674E-03   -0.11212E-02   512   0.756E-01    0.176E-01
DAV:   3    -0.615797710431E+02    0.86696E-03   -0.16757E-03   512   0.275E-01    0.417E-02
DAV:   4    -0.615797635798E+02    0.74633E-05   -0.16575E-04   432   0.906E-02
 118 F= -.61579764E+02 E0= -.61579763E+02  d E =-.205363E-02
 curvature:  -2.20 expect dE=-0.104E-01 dE for cont linesearch -0.252E-04
 trial: gam= 0.52891 g(F)=  0.279E-02 g(S)=  0.196E-02 ort = 0.704E-03 (trialstep = 0.284E+00)
 search vector abs. value=  0.176E-01
 bond charge predicted
       N       E                     dE             d eps       ncg     rms          rms(c)
DAV:   1    -0.615812225080E+02   -0.14515E-02   -0.95410E-02   384   0.218E+00    0.135E-01
DAV:   2    -0.615809876941E+02    0.23481E-03   -0.19465E-03   496   0.315E-01    0.799E-02
DAV:   3    -0.615807992170E+02    0.18848E-03   -0.38031E-04   512   0.127E-01    0.177E-02
DAV:   4    -0.615808123142E+02   -0.13097E-04   -0.34038E-05   304   0.437E-02
 119 F= -.61580812E+02 E0= -.61580812E+02  d E =-.104873E-02
 trial-energy change:   -0.001049  1 .order   -0.001067   -0.001455   -0.000678
 step:   0.5330(harm=  0.5330)  dis= 0.00310  next Energy=   -61.581127 (dE=-0.136E-02)
 bond charge predicted
       N       E                     dE             d eps       ncg     rms          rms(c)
DAV:   1    -0.615814433614E+02   -0.64414E-03   -0.72885E-02   384   0.190E+00    0.118E-01
DAV:   2    -0.615812668971E+02    0.17646E-03   -0.14770E-03   472   0.276E-01    0.694E-02
DAV:   3    -0.615811202675E+02    0.14663E-03   -0.26208E-04   392   0.110E-01    0.148E-02
DAV:   4    -0.615811295822E+02   -0.93147E-05   -0.39601E-05   272   0.529E-02
 120 F= -.61581130E+02 E0= -.61581129E+02  d E =-.136600E-02
 curvature:  -0.92 expect dE=-0.496E-02 dE for cont linesearch -0.928E-06
 trial: gam= 1.19903 g(F)=  0.470E-02 g(S)=  0.705E-03 ort = 0.133E-03 (trialstep = 0.190E+00)
 search vector abs. value=  0.310E-01
 bond charge predicted
       N       E                     dE             d eps       ncg     rms          rms(c)
DAV:   1    -0.615821945386E+02   -0.10743E-02   -0.81486E-02   384   0.199E+00    0.110E-01
DAV:   2    -0.615821001442E+02    0.94394E-04   -0.16491E-03   464   0.285E-01    0.659E-02
DAV:   3    -0.615819776069E+02    0.12254E-03   -0.14638E-04   368   0.877E-02    0.197E-02
DAV:   4    -0.615819775418E+02    0.65123E-07   -0.41021E-05   224   0.476E-02
 121 F= -.61581978E+02 E0= -.61581977E+02  d E =-.847960E-03
 trial-energy change:   -0.000848  1 .order   -0.000849   -0.001056   -0.000642
 step:   0.4840(harm=  0.4840)  dis= 0.00416  next Energy=   -61.582477 (dE=-0.135E-02)
 bond charge predicted
       N       E                     dE             d eps       ncg     rms          rms(c)
DAV:   1    -0.615829911565E+02   -0.10135E-02   -0.19752E-01   384   0.310E+00    0.173E-01
DAV:   2    -0.615827714215E+02    0.21974E-03   -0.40301E-03   480   0.445E-01    0.103E-01
DAV:   3    -0.615824728378E+02    0.29858E-03   -0.41342E-04   496   0.137E-01    0.314E-02
DAV:   4    -0.615824586796E+02    0.14158E-04   -0.52558E-05   376   0.479E-02
 122 F= -.61582459E+02 E0= -.61582458E+02  d E =-.132910E-02
 curvature:  -1.35 expect dE=-0.706E-02 dE for cont linesearch -0.233E-05
 trial: gam= 0.98331 g(F)=  0.357E-02 g(S)=  0.166E-02 ort = 0.232E-03 (trialstep = 0.216E+00)
 search vector abs. value=  0.357E-01
 bond charge predicted
       N       E                     dE             d eps       ncg     rms          rms(c)
DAV:   1    -0.615837569247E+02   -0.12841E-02   -0.11588E-01   384   0.238E+00    0.139E-01
DAV:   2    -0.615835623701E+02    0.19455E-03   -0.22494E-03   496   0.342E-01    0.829E-02
DAV:   3    -0.615833746955E+02    0.18767E-03   -0.29704E-04   368   0.121E-01    0.239E-02
DAV:   4    -0.615833741891E+02    0.50635E-06   -0.53822E-05   240   0.557E-02
 123 F= -.61583374E+02 E0= -.61583374E+02  d E =-.915510E-03
 trial-energy change:   -0.000916  1 .order   -0.000948   -0.001180   -0.000717
 step:   0.5507(harm=  0.5507)  dis= 0.00515  next Energy=   -61.583963 (dE=-0.150E-02)
 bond charge predicted
       N       E                     dE             d eps       ncg     rms          rms(c)
DAV:   1    -0.615848023416E+02   -0.14276E-02   -0.27901E-01   384   0.369E+00    0.217E-01
DAV:   2    -0.615843468353E+02    0.45551E-03   -0.54145E-03   496   0.529E-01    0.129E-01
DAV:   3    -0.615839029135E+02    0.44392E-03   -0.80228E-04   480   0.190E-01    0.379E-02
DAV:   4    -0.615838846275E+02    0.18286E-04   -0.83040E-05   368   0.655E-02
 124 F= -.61583885E+02 E0= -.61583884E+02  d E =-.142595E-02
 curvature:  -1.80 expect dE=-0.103E-01 dE for cont linesearch -0.217E-05
 trial: gam= 1.10869 g(F)=  0.473E-02 g(S)=  0.101E-02 ort = 0.208E-03 (trialstep = 0.202E+00)
 search vector abs. value=  0.501E-01
 bond charge predicted
       N       E                     dE             d eps       ncg     rms          rms(c)
DAV:   1    -0.615854624428E+02   -0.15595E-02   -0.13304E-01   384   0.251E+00    0.163E-01
DAV:   2    -0.615851140987E+02    0.34834E-03   -0.25225E-03   472   0.364E-01    0.969E-02
DAV:   3    -0.615848368089E+02    0.27729E-03   -0.51364E-04   496   0.148E-01    0.238E-02
DAV:   4    -0.615848414016E+02   -0.45927E-05   -0.47188E-05   296   0.512E-02
 125 F= -.61584841E+02 E0= -.61584841E+02  d E =-.956774E-03
 trial-energy change:   -0.000957  1 .order   -0.001010   -0.001205   -0.000816
 step:   0.6244(harm=  0.6244)  dis= 0.00650  next Energy=   -61.585750 (dE=-0.187E-02)
 bond charge predicted
       N       E                     dE             d eps       ncg     rms          rms(c)
DAV:   1    -0.615883041617E+02   -0.34674E-02   -0.58687E-01   384   0.527E+00    0.344E-01
DAV:   2    -0.615868442341E+02    0.14599E-02   -0.11077E-02   464   0.750E-01    0.203E-01
DAV:   3    -0.615856412317E+02    0.12030E-02   -0.22088E-03   496   0.308E-01    0.490E-02
DAV:   4    -0.615856233764E+02    0.17855E-04   -0.21964E-04   432   0.107E-01
 126 F= -.61585623E+02 E0= -.61585623E+02  d E =-.173875E-02
 curvature:  -2.62 expect dE=-0.132E-01 dE for cont linesearch -0.181E-04
 trial: gam= 0.82141 g(F)=  0.343E-02 g(S)=  0.160E-02 ort = 0.588E-03 (trialstep = 0.286E+00)
 search vector abs. value=  0.398E-01
 bond charge predicted
       N       E                     dE             d eps       ncg     rms          rms(c)
DAV:   1    -0.615879051536E+02   -0.22639E-02   -0.19827E-01   384   0.306E+00    0.217E-01
DAV:   2    -0.615871822173E+02    0.72294E-03   -0.37919E-03   464   0.436E-01    0.129E-01
DAV:   3    -0.615866357731E+02    0.54644E-03   -0.98828E-04   496   0.199E-01    0.253E-02
DAV:   4    -0.615866602739E+02   -0.24501E-04   -0.82746E-05   320   0.700E-02
 127 F= -.61586660E+02 E0= -.61586660E+02  d E =-.103690E-02
 trial-energy change:   -0.001037  1 .order   -0.001144   -0.001577   -0.000710
 step:   0.5206(harm=  0.5206)  dis= 0.00469  next Energy=   -61.587058 (dE=-0.143E-02)
 bond charge predicted
       N       E                     dE             d eps       ncg     rms          rms(c)
DAV:   1    -0.615877868332E+02   -0.11511E-02   -0.13361E-01   384   0.251E+00    0.178E-01
DAV:   2    -0.615872990810E+02    0.48775E-03   -0.25595E-03   464   0.359E-01    0.106E-01
DAV:   3    -0.615869327372E+02    0.36634E-03   -0.67839E-04   504   0.164E-01    0.210E-02
DAV:   4    -0.615869507001E+02   -0.17963E-04   -0.59083E-05   328   0.588E-02
 128 F= -.61586951E+02 E0= -.61586950E+02  d E =-.132732E-02
 curvature:  -1.88 expect dE=-0.659E-02 dE for cont linesearch -0.256E-05
 trial: gam= 0.76065 g(F)=  0.293E-02 g(S)=  0.579E-03 ort = 0.233E-03 (trialstep = 0.333E+00)
 search vector abs. value=  0.269E-01
 bond charge predicted
       N       E                     dE             d eps       ncg     rms          rms(c)
DAV:   1    -0.615890809376E+02   -0.21482E-02   -0.18134E-01   384   0.293E+00    0.206E-01
DAV:   2    -0.615883794654E+02    0.70147E-03   -0.34424E-03   464   0.423E-01    0.120E-01
DAV:   3    -0.615878948428E+02    0.48462E-03   -0.96485E-04   512   0.191E-01    0.267E-02
DAV:   4    -0.615879023207E+02   -0.74779E-05   -0.71925E-05   320   0.660E-02
 129 F= -.61587902E+02 E0= -.61587902E+02  d E =-.951621E-03
 trial-energy change:   -0.000952  1 .order   -0.001036   -0.001226   -0.000845
 step:   1.0705(harm=  1.0705)  dis= 0.00759  next Energy=   -61.588922 (dE=-0.197E-02)
 bond charge predicted
       N       E                     dE             d eps       ncg     rms          rms(c)
DAV:   1    -0.615942097886E+02   -0.63149E-02   -0.89275E-01   384   0.650E+00    0.459E-01
DAV:   2    -0.615908627157E+02    0.33471E-02   -0.16953E-02   464   0.922E-01    0.266E-01
DAV:   3    -0.615885407206E+02    0.23220E-02   -0.46285E-03   512   0.416E-01    0.593E-02
DAV:   4    -0.615885259651E+02    0.14755E-04   -0.36609E-04   392   0.145E-01
 130 F= -.61588526E+02 E0= -.61588526E+02  d E =-.157527E-02
 curvature:  -3.91 expect dE=-0.223E-01 dE for cont linesearch -0.145E-04
 trial: gam= 1.70380 g(F)=  0.427E-02 g(S)=  0.145E-02 ort = 0.316E-03 (trialstep = 0.152E+00)
 search vector abs. value=  0.848E-01
 bond charge predicted
       N       E                     dE             d eps       ncg     rms          rms(c)
DAV:   1    -0.615900687946E+02   -0.15281E-02   -0.11528E-01   384   0.234E+00    0.168E-01
DAV:   2    -0.615895902771E+02    0.47852E-03   -0.21731E-03   464   0.333E-01    0.976E-02
DAV:   3    -0.615893038847E+02    0.28639E-03   -0.57036E-04   480   0.151E-01    0.227E-02
DAV:   4    -0.615893331282E+02   -0.29243E-04   -0.37401E-05   328   0.461E-02
 131 F= -.61589333E+02 E0= -.61589333E+02  d E =-.807163E-03
 trial-energy change:   -0.000807  1 .order   -0.000776   -0.000953   -0.000599
 step:   0.4096(harm=  0.4096)  dis= 0.00480  next Energy=   -61.589807 (dE=-0.128E-02)
 bond charge predicted
       N       E                     dE             d eps       ncg     rms          rms(c)
DAV:   1    -0.615919670570E+02   -0.26632E-02   -0.33195E-01   384   0.397E+00    0.285E-01
DAV:   2    -0.615906710285E+02    0.12960E-02   -0.62360E-03   464   0.561E-01    0.163E-01
DAV:   3    -0.615898197063E+02    0.85132E-03   -0.14976E-03   488   0.244E-01    0.372E-02
DAV:   4    -0.615898170401E+02    0.26662E-05   -0.87538E-05   320   0.702E-02
 132 F= -.61589817E+02 E0= -.61589817E+02  d E =-.129107E-02
 curvature:  -2.78 expect dE=-0.102E-01 dE for cont linesearch -0.190E-04
 trial: gam= 0.54168 g(F)=  0.307E-02 g(S)=  0.609E-03 ort = 0.762E-03 (trialstep = 0.204E+00)
 search vector abs. value=  0.294E-01
 bond charge predicted
       N       E                     dE             d eps       ncg     rms          rms(c)
DAV:   1    -0.615912338092E+02   -0.14141E-02   -0.71411E-02   384   0.185E+00    0.145E-01
DAV:   2    -0.615908094946E+02    0.42431E-03   -0.14099E-03   448   0.269E-01    0.830E-02
DAV:   3    -0.615905897444E+02    0.21975E-03   -0.54308E-04   456   0.141E-01    0.197E-02
DAV:   4    -0.615906073667E+02   -0.17622E-04   -0.32754E-05   328   0.418E-02
 133 F= -.61590607E+02 E0= -.61590607E+02  d E =-.790327E-03
 ZBRENT: can't locate minimum, use default step
 trial-energy change:   -0.000790  1 .order   -0.000768   -0.000833   -0.000704
 step:   0.8150(harm=  1.3133)  dis= 0.00604  next Energy=   -61.592501 (dE=-0.268E-02)
 bond charge predicted
       N       E                     dE             d eps       ncg     rms          rms(c)
DAV:   1    -0.615976821942E+02   -0.70924E-02   -0.64755E-01   384   0.555E+00    0.441E-01
DAV:   2    -0.615939892809E+02    0.36929E-02   -0.12708E-02   424   0.803E-01    0.251E-01
DAV:   3    -0.615919610726E+02    0.20282E-02   -0.47130E-03   480   0.413E-01    0.583E-02
DAV:   4    -0.615919478396E+02    0.13233E-04   -0.29336E-04   424   0.119E-01
 134 F= -.61591948E+02 E0= -.61591947E+02  d E =-.213080E-02
 curvature:  -3.77 expect dE=-0.877E-02 dE for cont linesearch -0.461E-03
 trial: gam= 0.00000 g(F)=  0.178E-02 g(S)=  0.550E-03 ort = 0.190E-02 (trialstep = 0.326E+00)
 search vector abs. value=  0.233E-02
 bond charge predicted
       N       E                     dE             d eps       ncg     rms          rms(c)
DAV:   1    -0.615924697600E+02   -0.50869E-03   -0.23524E-02   384   0.108E+00    0.570E-02
DAV:   2    -0.615924654427E+02    0.43173E-05   -0.61770E-04   496   0.170E-01
 135 F= -.61592465E+02 E0= -.61592465E+02  d E =-.517603E-03
 trial-energy change:   -0.000518  1 .order   -0.000474   -0.000759   -0.000189
 step:   0.4340(harm=  0.4340)  dis= 0.00141  next Energy=   -61.592453 (dE=-0.505E-03)
 bond charge predicted
       N       E                     dE             d eps       ncg     rms          rms(c)
DAV:   1    -0.615924786784E+02   -0.89184E-05   -0.22681E-03   440   0.344E-01    0.263E-02
DAV:   2    -0.615924862757E+02   -0.75973E-05   -0.40452E-05   368   0.485E-02
 136 F= -.61592486E+02 E0= -.61592486E+02  d E =-.538436E-03
 curvature:  -0.22 expect dE=-0.620E-03 dE for cont linesearch -0.601E-05
 trial: gam= 1.33588 g(F)=  0.232E-02 g(S)=  0.537E-03 ort =-0.254E-03 (trialstep = 0.128E+00)
 search vector abs. value=  0.633E-02
 reached required accuracy - stopping structural energy minimisation
 writing wavefunctions
Sun Mar  6 20:15:22 CST 2022
