Sun Mar  6 19:51:05 CST 2022
 running on   48 total cores
 distrk:  each k-point on   48 cores,    1 groups
 distr:  one band on   24 cores,    2 groups
 using from now: INCAR     
 vasp.5.3.5 31Mar14 (build Jan 11 2016 19:50:55) complex                        
  
 POSCAR found type information on POSCAR  B  C  Na
 POSCAR found :  3 types and       9 ions
 scaLAPACK will be used

 ----------------------------------------------------------------------------- 
|                                                                             |
|           W    W    AA    RRRRR   N    N  II  N    N   GGGG   !!!           |
|           W    W   A  A   R    R  NN   N  II  NN   N  G    G  !!!           |
|           W    W  A    A  R    R  N N  N  II  N N  N  G       !!!           |
|           W WW W  AAAAAA  RRRRR   N  N N  II  N  N N  G  GGG   !            |
|           WW  WW  A    A  R   R   N   NN  II  N   NN  G    G                |
|           W    W  A    A  R    R  N    N  II  N    N   GGGG   !!!           |
|                                                                             |
|      For optimal performance we recommend to set                            |
|        NCORE= 4 - approx SQRT( number of cores)                             |
|      NCORE specifies how many cores store one orbital (NPAR=cpu/NCORE).     |
|      This setting can  greatly improve the performance of VASP for DFT.     |
|      The default, NPAR=number of cores might be grossly inefficient         |
|      on modern multi-core architectures or massively parallel machines.     |
|      Do your own testing !!!!                                               |
|      Unfortunately you need to use the default for GW and RPA calculations. |
|      (for HF NCORE is supported but not extensively tested yet)             |
|                                                                             |
 ----------------------------------------------------------------------------- 

 LDA part: xc-table for Pade appr. of Perdew
 POSCAR, INCAR and KPOINTS ok, starting setup
 WARNING: small aliasing (wrap around) errors must be expected
 FFT: planning ...
 WAVECAR not read
 entering main loop
       N       E                     dE             d eps       ncg     rms          rms(c)
DAV:   1     0.262593786113E+03    0.26259E+03   -0.11759E+04   480   0.829E+02
DAV:   2    -0.684478688096E+01   -0.26944E+03   -0.26060E+03   592   0.226E+02
DAV:   3    -0.646667591236E+02   -0.57822E+02   -0.57486E+02   464   0.104E+02
DAV:   4    -0.677645329900E+02   -0.30978E+01   -0.30800E+01   536   0.312E+01
DAV:   5    -0.678427518131E+02   -0.78219E-01   -0.78043E-01   504   0.470E+00    0.131E+01
DAV:   6    -0.612992735403E+02    0.65435E+01   -0.14272E+01   464   0.239E+01    0.686E+00
DAV:   7    -0.595995134073E+02    0.16998E+01   -0.47940E+00   640   0.134E+01    0.321E+00
DAV:   8    -0.592679471875E+02    0.33157E+00   -0.10747E+00   568   0.503E+00    0.138E+00
DAV:   9    -0.591524571205E+02    0.11549E+00   -0.13896E-01   488   0.197E+00    0.497E-01
DAV:  10    -0.591094510876E+02    0.43006E-01   -0.32825E-02   576   0.973E-01    0.291E-01
DAV:  11    -0.590847507385E+02    0.24700E-01   -0.16968E-02   576   0.630E-01    0.182E-01
DAV:  12    -0.590757529080E+02    0.89978E-02   -0.18437E-02   496   0.507E-01    0.129E-01
DAV:  13    -0.590785374991E+02   -0.27846E-02   -0.20685E-03   448   0.287E-01    0.715E-02
DAV:  14    -0.590816446415E+02   -0.31071E-02   -0.31365E-03   416   0.180E-01    0.512E-02
DAV:  15    -0.590867986388E+02   -0.51540E-02   -0.30580E-03   464   0.219E-01    0.440E-02
DAV:  16    -0.590879318544E+02   -0.11332E-02   -0.99590E-04   368   0.959E-02    0.170E-02
DAV:  17    -0.590895811710E+02   -0.16493E-02   -0.65074E-04   320   0.591E-02    0.149E-02
DAV:  18    -0.590900024100E+02   -0.42124E-03   -0.13280E-04   288   0.386E-02    0.717E-03
DAV:  19    -0.590902680730E+02   -0.26566E-03   -0.74442E-05   288   0.266E-02    0.419E-03
DAV:  20    -0.590903519830E+02   -0.83910E-04   -0.22552E-05   288   0.169E-02
   1 F= -.59090352E+02 E0= -.59065822E+02  d E =-.590904E+02
 curvature:   0.00 expect dE= 0.000E+00 dE for cont linesearch  0.000E+00
 trial: gam= 0.00000 g(F)=  0.110E+01 g(S)=  0.303E+00 ort = 0.000E+00 (trialstep = 0.100E+01)
 search vector abs. value=  0.140E+01
 bond charge predicted
       N       E                     dE             d eps       ncg     rms          rms(c)
DAV:   1    -0.587813004253E+02    0.30897E+00   -0.20523E+02   448   0.117E+02    0.377E+00
DAV:   2    -0.590840850388E+02   -0.30278E+00   -0.64912E+00   496   0.170E+01    0.228E+00
DAV:   3    -0.589909407314E+02    0.93144E-01   -0.30721E-01   496   0.359E+00    0.126E+00
DAV:   4    -0.589659959480E+02    0.24945E-01   -0.67696E-02   576   0.178E+00    0.296E-01
DAV:   5    -0.589646212806E+02    0.13747E-02   -0.89701E-03   512   0.581E-01    0.102E-01
DAV:   6    -0.589645133139E+02    0.10797E-03   -0.95738E-04   528   0.188E-01    0.559E-02
DAV:   7    -0.589645627443E+02   -0.49430E-04   -0.21864E-04   384   0.959E-02
   2 F= -.58964563E+02 E0= -.58946104E+02  d E =0.125789E+00
 trial-energy change:    0.125789  1 .order    0.074005   -1.398691    1.546700
 step:   0.4488(harm=  0.4749)  dis= 0.06959  next Energy=   -59.399523 (dE=-0.309E+00)
 bond charge predicted
       N       E                     dE             d eps       ncg     rms          rms(c)
DAV:   1    -0.594274776711E+02   -0.46296E+00   -0.51733E+01   384   0.469E+01    0.220E+00
DAV:   2    -0.594393774679E+02   -0.11900E-01   -0.14922E+00   544   0.781E+00    0.125E+00
DAV:   3    -0.594080906555E+02    0.31287E-01   -0.11224E-01   560   0.243E+00    0.461E-01
DAV:   4    -0.594053168451E+02    0.27738E-02   -0.16149E-02   528   0.785E-01    0.157E-01
DAV:   5    -0.594051093586E+02    0.20749E-03   -0.15578E-03   512   0.274E-01    0.664E-02
DAV:   6    -0.594051242907E+02   -0.14932E-04   -0.18678E-04   384   0.888E-02
   3 F= -.59405124E+02 E0= -.59390756E+02  d E =-.314772E+00
 curvature:  -0.24 expect dE=-0.238E+00 dE for cont linesearch -0.978E-04
 trial: gam= 0.73526 g(F)=  0.936E+00 g(S)=  0.684E-01 ort =-0.240E-01 (trialstep = 0.721E+00)
 search vector abs. value=  0.173E+01
 bond charge predicted
       N       E                     dE             d eps       ncg     rms          rms(c)
DAV:   1    -0.595627451526E+02   -0.15764E+00   -0.14689E+02   480   0.877E+01    0.297E+00
DAV:   2    -0.596159307903E+02   -0.53186E-01   -0.30623E+00   496   0.127E+01    0.164E+00
DAV:   3    -0.595416302611E+02    0.74301E-01   -0.30331E-01   496   0.332E+00    0.662E-01
DAV:   4    -0.595324351842E+02    0.91951E-02   -0.41856E-02   528   0.112E+00    0.298E-01
DAV:   5    -0.595308381570E+02    0.15970E-02   -0.68613E-03   496   0.438E-01    0.116E-01
DAV:   6    -0.595305726471E+02    0.26551E-03   -0.90955E-04   512   0.160E-01    0.453E-02
DAV:   7    -0.595307130649E+02   -0.14042E-03   -0.13838E-04   384   0.614E-02    0.221E-02
DAV:   8    -0.595309251240E+02   -0.21206E-03   -0.13408E-04   384   0.494E-02    0.117E-02
DAV:   9    -0.595311774903E+02   -0.25237E-03   -0.75530E-05   368   0.345E-02    0.564E-03
DAV:  10    -0.595313528400E+02   -0.17535E-03   -0.53110E-05   368   0.255E-02    0.399E-03
DAV:  11    -0.595314697151E+02   -0.11688E-03   -0.16362E-05   336   0.179E-02    0.214E-03
DAV:  12    -0.595315192639E+02   -0.49549E-04   -0.50836E-06   336   0.107E-02
   4 F= -.59531519E+02 E0= -.59503319E+02  d E =-.126395E+00
 trial-energy change:   -0.126395  1 .order   -0.140826   -0.711779    0.430127
 step:   0.4366(harm=  0.4497)  dis= 0.08365  next Energy=   -59.617312 (dE=-0.212E+00)
 bond charge predicted
       N       E                     dE             d eps       ncg     rms          rms(c)
DAV:   1    -0.596253752833E+02   -0.93906E-01   -0.19790E+01   384   0.280E+01    0.118E+00
DAV:   2    -0.596285903302E+02   -0.32150E-02   -0.49399E-01   512   0.454E+00    0.669E-01
DAV:   3    -0.596181577952E+02    0.10433E-01   -0.47416E-02   568   0.139E+00    0.313E-01
DAV:   4    -0.596171676978E+02    0.99010E-03   -0.51987E-03   504   0.400E-01    0.148E-01
DAV:   5    -0.596171207859E+02    0.46912E-04   -0.76918E-04   504   0.155E-01
   5 F= -.59617121E+02 E0= -.59593762E+02  d E =-.211996E+00
 curvature:  -0.39 expect dE=-0.835E-01 dE for cont linesearch -0.273E-04
 trial: gam= 0.28239 g(F)=  0.167E+00 g(S)=  0.461E-01 ort =-0.110E-01 (trialstep = 0.664E+00)
 search vector abs. value=  0.344E+00
 bond charge predicted
       N       E                     dE             d eps       ncg     rms          rms(c)
DAV:   1    -0.596396330157E+02   -0.22465E-01   -0.21474E+01   384   0.304E+01    0.105E+00
DAV:   2    -0.596606688778E+02   -0.21036E-01   -0.53955E-01   496   0.473E+00    0.634E-01
DAV:   3    -0.596532289321E+02    0.74399E-02   -0.43166E-02   576   0.140E+00    0.291E-01
DAV:   4    -0.596525631277E+02    0.66580E-03   -0.55787E-03   512   0.457E-01    0.126E-01
DAV:   5    -0.596525383799E+02    0.24748E-04   -0.78971E-04   512   0.147E-01
   6 F= -.59652538E+02 E0= -.59624872E+02  d E =-.354176E-01
 trial-energy change:   -0.035418  1 .order   -0.035818   -0.139333    0.067697
 step:   0.4455(harm=  0.4472)  dis= 0.03629  next Energy=   -59.663708 (dE=-0.466E-01)
 bond charge predicted
       N       E                     dE             d eps       ncg     rms          rms(c)
DAV:   1    -0.596634220473E+02   -0.10859E-01   -0.22983E+00   384   0.972E+00    0.339E-01
DAV:   2    -0.596646879351E+02   -0.12659E-02   -0.52332E-02   448   0.149E+00    0.211E-01
DAV:   3    -0.596639715569E+02    0.71638E-03   -0.50823E-03   560   0.453E-01    0.943E-02
DAV:   4    -0.596639483315E+02    0.23225E-04   -0.61338E-04   512   0.151E-01
   7 F= -.59663948E+02 E0= -.59637575E+02  d E =-.468275E-01
 curvature:  -0.37 expect dE=-0.400E-01 dE for cont linesearch -0.299E-05
 trial: gam= 0.57854 g(F)=  0.103E+00 g(S)=  0.541E-02 ort =-0.167E-02 (trialstep = 0.621E+00)
 search vector abs. value=  0.222E+00
 bond charge predicted
       N       E                     dE             d eps       ncg     rms          rms(c)
DAV:   1    -0.596583076368E+02    0.56639E-02   -0.11028E+01   384   0.218E+01    0.715E-01
DAV:   2    -0.596704503799E+02   -0.12143E-01   -0.25477E-01   544   0.324E+00    0.421E-01
DAV:   3    -0.596680380078E+02    0.24124E-02   -0.11312E-02   576   0.723E-01    0.224E-01
DAV:   4    -0.596675800503E+02    0.45796E-03   -0.27371E-03   512   0.300E-01    0.644E-02
DAV:   5    -0.596675704241E+02    0.96262E-05   -0.44107E-04   480   0.111E-01
   8 F= -.59667570E+02 E0= -.59639206E+02  d E =-.362209E-02
 trial-energy change:   -0.003622  1 .order   -0.004176   -0.066987    0.058636
 step:   0.3269(harm=  0.3309)  dis= 0.02011  next Energy=   -59.681507 (dE=-0.176E-01)
 bond charge predicted
       N       E                     dE             d eps       ncg     rms          rms(c)
DAV:   1    -0.596793333412E+02   -0.11753E-01   -0.24590E+00   384   0.103E+01    0.318E-01
DAV:   2    -0.596822001413E+02   -0.28668E-02   -0.58768E-02   544   0.152E+00    0.202E-01
DAV:   3    -0.596816447932E+02    0.55535E-03   -0.26477E-03   496   0.345E-01    0.997E-02
DAV:   4    -0.596816043749E+02    0.40418E-04   -0.69789E-04   512   0.175E-01
   9 F= -.59681604E+02 E0= -.59654351E+02  d E =-.176560E-01
 curvature:  -0.34 expect dE=-0.175E-01 dE for cont linesearch -0.584E-05
 trial: gam= 0.49101 g(F)=  0.438E-01 g(S)=  0.771E-02 ort = 0.195E-02 (trialstep = 0.562E+00)
 search vector abs. value=  0.107E+00
 bond charge predicted
       N       E                     dE             d eps       ncg     rms          rms(c)
DAV:   1    -0.596947084968E+02   -0.13064E-01   -0.46312E+00   384   0.142E+01    0.525E-01
DAV:   2    -0.596932998288E+02    0.14087E-02   -0.13420E-01   480   0.206E+00    0.342E-01
DAV:   3    -0.596911761288E+02    0.21237E-02   -0.93362E-03   480   0.566E-01    0.223E-01
DAV:   4    -0.596907849439E+02    0.39118E-03   -0.17233E-03   512   0.260E-01    0.116E-01
DAV:   5    -0.596907710548E+02    0.13889E-04   -0.29803E-04   464   0.109E-01
  10 F= -.59690771E+02 E0= -.59661586E+02  d E =-.916668E-02
 trial-energy change:   -0.009167  1 .order   -0.009870   -0.029482    0.009743
 step:   0.4104(harm=  0.4223)  dis= 0.01616  next Energy=   -59.692098 (dE=-0.105E-01)
 bond charge predicted
       N       E                     dE             d eps       ncg     rms          rms(c)
DAV:   1    -0.596922714574E+02   -0.14865E-02   -0.33721E-01   384   0.381E+00    0.132E-01
DAV:   2    -0.596923047478E+02   -0.33290E-04   -0.92038E-03   480   0.561E-01    0.855E-02
DAV:   3    -0.596921994374E+02    0.10531E-03   -0.58130E-04   480   0.150E-01    0.553E-02
DAV:   4    -0.596921963835E+02    0.30539E-05   -0.13986E-04   288   0.794E-02
  11 F= -.59692196E+02 E0= -.59663390E+02  d E =-.105920E-01
 curvature:  -0.43 expect dE=-0.133E-01 dE for cont linesearch -0.180E-05
 trial: gam= 0.62625 g(F)=  0.210E-01 g(S)=  0.101E-01 ort = 0.672E-03 (trialstep = 0.532E+00)
 search vector abs. value=  0.739E-01
 bond charge predicted
       N       E                     dE             d eps       ncg     rms          rms(c)
DAV:   1    -0.597152859919E+02   -0.23087E-01   -0.25004E+00   384   0.101E+01    0.558E-01
DAV:   2    -0.597079857120E+02    0.73003E-02   -0.10936E-01   496   0.163E+00    0.323E-01
DAV:   3    -0.597055123077E+02    0.24734E-02   -0.75524E-03   448   0.499E-01    0.173E-01
DAV:   4    -0.597049091724E+02    0.60314E-03   -0.30355E-03   488   0.390E-01    0.439E-02
DAV:   5    -0.597049043459E+02    0.48265E-05   -0.33412E-04   472   0.131E-01
  12 F= -.59704904E+02 E0= -.59676452E+02  d E =-.127080E-01
 trial-energy change:   -0.012708  1 .order   -0.012912   -0.016745   -0.009079
 step:   1.1612(harm=  1.1612)  dis= 0.03539  next Energy=   -59.710485 (dE=-0.183E-01)
 bond charge predicted
       N       E                     dE             d eps       ncg     rms          rms(c)
DAV:   1    -0.597258969680E+02   -0.20988E-01   -0.35149E+00   384   0.120E+01    0.668E-01
DAV:   2    -0.597155750637E+02    0.10322E-01   -0.15813E-01   496   0.194E+00    0.389E-01
DAV:   3    -0.597118736645E+02    0.37014E-02   -0.10998E-02   480   0.595E-01    0.208E-01
DAV:   4    -0.597109787212E+02    0.89494E-03   -0.43219E-03   496   0.464E-01    0.544E-02
DAV:   5    -0.597109900061E+02   -0.11285E-04   -0.48156E-04   512   0.155E-01
  13 F= -.59710990E+02 E0= -.59682736E+02  d E =-.187936E-01
 curvature:  -1.36 expect dE=-0.983E-01 dE for cont linesearch -0.625E-04
 trial: gam= 2.28807 g(F)=  0.590E-01 g(S)=  0.132E-01 ort = 0.184E-02 (trialstep = 0.104E+00)
 search vector abs. value=  0.467E+00
 bond charge predicted
       N       E                     dE             d eps       ncg     rms          rms(c)
DAV:   1    -0.597215147610E+02   -0.10536E-01   -0.54935E-01   384   0.483E+00    0.301E-01
DAV:   2    -0.597192551295E+02    0.22596E-02   -0.23741E-02   480   0.759E-01    0.166E-01
DAV:   3    -0.597186248535E+02    0.63028E-03   -0.19701E-03   480   0.245E-01    0.894E-02
DAV:   4    -0.597184828628E+02    0.14199E-03   -0.68869E-04   496   0.180E-01    0.210E-02
DAV:   5    -0.597185176415E+02   -0.34779E-04   -0.65196E-05   304   0.614E-02
  14 F= -.59718518E+02 E0= -.59690253E+02  d E =-.752764E-02
 ZBRENT: can't locate minimum, use default step
 trial-energy change:   -0.007528  1 .order   -0.007366   -0.007941   -0.006791
 step:   0.4157(harm=  0.7176)  dis= 0.02899  next Energy=   -59.738405 (dE=-0.274E-01)
 bond charge predicted
       N       E                     dE             d eps       ncg     rms          rms(c)
DAV:   1    -0.597658449193E+02   -0.47362E-01   -0.49753E+00   448   0.143E+01    0.941E-01
DAV:   2    -0.597410624177E+02    0.24783E-01   -0.19130E-01   496   0.191E+00    0.505E-01
DAV:   3    -0.597348681669E+02    0.61943E-02   -0.17508E-02   480   0.739E-01    0.262E-01
DAV:   4    -0.597333082402E+02    0.15599E-02   -0.49393E-03   496   0.456E-01    0.678E-02
DAV:   5    -0.597333270556E+02   -0.18815E-04   -0.62378E-04   512   0.162E-01
  15 F= -.59733327E+02 E0= -.59705521E+02  d E =-.223370E-01
 curvature:  -1.66 expect dE=-0.866E-01 dE for cont linesearch -0.292E-02
 ZBRENT: increasing intervall
 opt :   1.0393  next Energy=   -59.728313 (dE=-0.173E-01)
 bond charge predicted
       N       E                     dE             d eps       ncg     rms          rms(c)
DAV:   1    -0.598460607358E+02   -0.11275E+00   -0.19725E+01   384   0.285E+01    0.191E+00
DAV:   2    -0.597649319473E+02    0.81129E-01   -0.10370E+00   464   0.484E+00    0.106E+00
DAV:   3    -0.597365229505E+02    0.28409E-01   -0.73570E-02   480   0.160E+00    0.572E-01
DAV:   4    -0.597292196191E+02    0.73033E-02   -0.26144E-02   544   0.113E+00    0.162E-01
DAV:   5    -0.597290012516E+02    0.21837E-03   -0.51556E-03   464   0.415E-01    0.717E-02
DAV:   6    -0.597290450352E+02   -0.43784E-04   -0.59159E-04   448   0.120E-01
  16 F= -.59729045E+02 E0= -.59701637E+02  d E =-.180550E-01
 curvature:   2.85 expect dE= 0.977E+00 dE for cont linesearch  0.106E-01
 ZBRENT: bracketing found
 ZBRENT: interpolating
 opt :   0.6699  next Energy=   -59.736969 (dE=-0.260E-01)
 bond charge predicted
       N       E                     dE             d eps       ncg     rms          rms(c)
DAV:   1    -0.597795888375E+02   -0.50588E-01   -0.72370E+00   448   0.179E+01    0.106E+00
DAV:   2    -0.597444462786E+02    0.35143E-01   -0.18308E-01   464   0.244E+00    0.543E-01
DAV:   3    -0.597388715498E+02    0.55747E-02   -0.16701E-02   480   0.828E-01    0.260E-01
DAV:   4    -0.597376890417E+02    0.11825E-02   -0.53206E-03   496   0.441E-01    0.713E-02
DAV:   5    -0.597376224053E+02    0.66636E-04   -0.67477E-04   472   0.153E-01
  17 F= -.59737622E+02 E0= -.59709952E+02  d E =-.266324E-01
 curvature:  -0.98 expect dE=-0.119E+00 dE for cont linesearch -0.297E-05
 trial: gam= 1.81739 g(F)=  0.110E+00 g(S)=  0.114E-01 ort =-0.119E-02 (trialstep = 0.611E-01)
 search vector abs. value=  0.166E+01
 bond charge predicted
       N       E                     dE             d eps       ncg     rms          rms(c)
DAV:   1    -0.597499111700E+02   -0.12222E-01   -0.66575E-01   448   0.534E+00    0.369E-01
DAV:   2    -0.597454686722E+02    0.44425E-02   -0.27440E-02   464   0.733E-01    0.195E-01
DAV:   3    -0.597446308854E+02    0.83779E-03   -0.27172E-03   464   0.283E-01    0.984E-02
DAV:   4    -0.597444493298E+02    0.18156E-03   -0.81577E-04   512   0.178E-01    0.273E-02
DAV:   5    -0.597444403878E+02    0.89420E-05   -0.86187E-05   320   0.622E-02
  18 F= -.59744440E+02 E0= -.59716668E+02  d E =-.681798E-02
 ZBRENT: can't locate minimum, use default step
 trial-energy change:   -0.006818  1 .order   -0.006691   -0.007274   -0.006108
 step:   0.2445(harm=  0.3812)  dis= 0.02972  next Energy=   -59.760306 (dE=-0.227E-01)
 bond charge predicted
       N       E                     dE             d eps       ncg     rms          rms(c)
DAV:   1    -0.598086649477E+02   -0.64216E-01   -0.59493E+00   448   0.159E+01    0.114E+00
DAV:   2    -0.597687207057E+02    0.39944E-01   -0.28898E-01   448   0.220E+00    0.605E-01
DAV:   3    -0.597592648232E+02    0.94559E-02   -0.26688E-02   464   0.894E-01    0.310E-01
DAV:   4    -0.597570396414E+02    0.22252E-02   -0.75819E-03   512   0.547E-01    0.919E-02
DAV:   5    -0.597569902422E+02    0.49399E-04   -0.11420E-03   512   0.201E-01    0.354E-02
DAV:   6    -0.597570297438E+02   -0.39502E-04   -0.14381E-04   384   0.598E-02
  19 F= -.59757030E+02 E0= -.59729182E+02  d E =-.194073E-01
 curvature:  -2.17 expect dE=-0.103E+00 dE for cont linesearch -0.242E-02
 ZBRENT: increasing intervall
 opt :   0.6111  next Energy=   -59.751903 (dE=-0.143E-01)
 bond charge predicted
       N       E                     dE             d eps       ncg     rms          rms(c)
DAV:   1    -0.599659356936E+02   -0.20895E+00   -0.23768E+01   448   0.314E+01    0.237E+00
DAV:   2    -0.598004992634E+02    0.16544E+00   -0.13482E+00   480   0.449E+00    0.122E+00
DAV:   3    -0.597604182044E+02    0.40081E-01   -0.10657E-01   464   0.187E+00    0.643E-01
DAV:   4    -0.597509596116E+02    0.94586E-02   -0.32071E-02   496   0.108E+00    0.214E-01
DAV:   5    -0.597504720263E+02    0.48759E-03   -0.69007E-03   496   0.426E-01    0.880E-02
DAV:   6    -0.597504569768E+02    0.15050E-04   -0.96751E-04   496   0.137E-01
  20 F= -.59750457E+02 E0= -.59722717E+02  d E =-.128346E-01
 curvature:   4.61 expect dE= 0.112E+01 dE for cont linesearch  0.137E-01
 ZBRENT: bracketing found
 ZBRENT: interpolating
 opt :   0.3837  next Energy=   -59.760023 (dE=-0.224E-01)
 bond charge predicted
       N       E                     dE             d eps       ncg     rms          rms(c)
DAV:   1    -0.598325167905E+02   -0.82045E-01   -0.94919E+00   448   0.208E+01    0.132E+00
DAV:   2    -0.597710486947E+02    0.61468E-01   -0.26177E-01   464   0.289E+00    0.654E-01
DAV:   3    -0.597618864070E+02    0.91623E-02   -0.26580E-02   480   0.104E+00    0.295E-01
DAV:   4    -0.597602531125E+02    0.16333E-02   -0.71711E-03   496   0.512E-01    0.891E-02
DAV:   5    -0.597601256557E+02    0.12746E-03   -0.10547E-03   464   0.184E-01    0.328E-02
DAV:   6    -0.597601127413E+02    0.12914E-04   -0.12966E-04   384   0.599E-02
  21 F= -.59760113E+02 E0= -.59732251E+02  d E =-.224903E-01
 curvature:  -1.01 expect dE=-0.776E-01 dE for cont linesearch -0.894E-06
 trial: gam= 0.63530 g(F)=  0.652E-01 g(S)=  0.116E-01 ort =-0.121E-02 (trialstep = 0.126E+00)
 search vector abs. value=  0.746E+00
 bond charge predicted
       N       E                     dE             d eps       ncg     rms          rms(c)
DAV:   1    -0.597807467925E+02   -0.20621E-01   -0.11855E+00   448   0.728E+00    0.542E-01
DAV:   2    -0.597712579858E+02    0.94888E-02   -0.55955E-02   480   0.101E+00    0.296E-01
DAV:   3    -0.597692621198E+02    0.19959E-02   -0.57343E-03   432   0.405E-01    0.153E-01
DAV:   4    -0.597687460879E+02    0.51603E-03   -0.19429E-03   512   0.268E-01    0.489E-02
DAV:   5    -0.597687067431E+02    0.39345E-04   -0.22205E-04   432   0.989E-02
  22 F= -.59768707E+02 E0= -.59741186E+02  d E =-.859400E-02
 ZBRENT: can't locate minimum, use default step
 trial-energy change:   -0.008594  1 .order   -0.008696   -0.009553   -0.007839
 step:   0.5026(harm=  0.7005)  dis= 0.03490  next Energy=   -59.786742 (dE=-0.266E-01)
 bond charge predicted
       N       E                     dE             d eps       ncg     rms          rms(c)
DAV:   1    -0.598987265852E+02   -0.12998E+00   -0.10658E+01   448   0.216E+01    0.169E+00
DAV:   2    -0.598115788057E+02    0.87148E-01   -0.59667E-01   480   0.305E+00    0.910E-01
DAV:   3    -0.597901861442E+02    0.21393E-01   -0.54459E-02   448   0.128E+00    0.479E-01
DAV:   4    -0.597846442700E+02    0.55419E-02   -0.16809E-02   512   0.800E-01    0.162E-01
DAV:   5    -0.597843747821E+02    0.26949E-03   -0.24514E-03   512   0.295E-01    0.578E-02
DAV:   6    -0.597844141243E+02   -0.39342E-04   -0.36036E-04   400   0.995E-02
  23 F= -.59784414E+02 E0= -.59757389E+02  d E =-.243014E-01
 curvature:  -3.03 expect dE=-0.130E+00 dE for cont linesearch -0.300E-02
 ZBRENT: increasing intervall
 opt :   1.2564  next Energy=   -59.778366 (dE=-0.183E-01)
 bond charge predicted
       N       E                     dE             d eps       ncg     rms          rms(c)
DAV:   1    -0.602446930311E+02   -0.46032E+00   -0.42668E+01   448   0.428E+01    0.350E+00
DAV:   2    -0.598769832210E+02    0.36771E+00   -0.24761E+00   464   0.623E+00    0.178E+00
DAV:   3    -0.597989621599E+02    0.78021E-01   -0.19468E-01   416   0.266E+00    0.965E-01
DAV:   4    -0.597782158068E+02    0.20746E-01   -0.59245E-02   528   0.149E+00    0.356E-01
DAV:   5    -0.597768232874E+02    0.13925E-02   -0.11986E-02   512   0.598E-01    0.129E-01
DAV:   6    -0.597766497276E+02    0.17356E-03   -0.20500E-03   480   0.212E-01    0.488E-02
DAV:   7    -0.597770398063E+02   -0.39008E-03   -0.30809E-04   384   0.102E-01    0.225E-02
DAV:   8    -0.597773957759E+02   -0.35597E-03   -0.14644E-04   352   0.613E-02    0.149E-02
DAV:   9    -0.597778631973E+02   -0.46742E-03   -0.18884E-04   368   0.559E-02    0.102E-02
DAV:  10    -0.597781483183E+02   -0.28512E-03   -0.99452E-05   368   0.375E-02    0.523E-03
DAV:  11    -0.597782637730E+02   -0.11545E-03   -0.35622E-05   336   0.225E-02    0.341E-03
DAV:  12    -0.597783107172E+02   -0.46944E-04   -0.75597E-06   320   0.130E-02
  24 F= -.59778311E+02 E0= -.59752562E+02  d E =-.181980E-01
 curvature:   6.10 expect dE= 0.132E+01 dE for cont linesearch  0.161E-01
 ZBRENT: bracketing found
 ZBRENT: interpolating
 opt :   0.7891  next Energy=   -59.788310 (dE=-0.282E-01)
 bond charge predicted
       N       E                     dE             d eps       ncg     rms          rms(c)
DAV:   1    -0.599506657397E+02   -0.17240E+00   -0.17142E+01   448   0.287E+01    0.190E+00
DAV:   2    -0.598187325608E+02    0.13193E+00   -0.44852E-01   432   0.401E+00    0.970E-01
DAV:   3    -0.597919310946E+02    0.26801E-01   -0.73885E-02   472   0.165E+00    0.373E-01
DAV:   4    -0.597888419267E+02    0.30892E-02   -0.86577E-03   488   0.590E-01    0.140E-01
DAV:   5    -0.597883236827E+02    0.51824E-03   -0.18459E-03   528   0.232E-01    0.537E-02
DAV:   6    -0.597882825050E+02    0.41178E-04   -0.76099E-04   416   0.110E-01
  25 F= -.59788283E+02 E0= -.59762198E+02  d E =-.281698E-01
 curvature:  -1.48 expect dE=-0.115E+00 dE for cont linesearch -0.339E-03
 trial: gam= 1.05871 g(F)=  0.694E-01 g(S)=  0.822E-02 ort =-0.131E-01 (trialstep = 0.217E+00)
 search vector abs. value=  0.886E+00
 bond charge predicted
       N       E                     dE             d eps       ncg     rms          rms(c)
DAV:   1    -0.598398799081E+02   -0.51556E-01   -0.38109E+00   448   0.133E+01    0.106E+00
DAV:   2    -0.598078542609E+02    0.32026E-01   -0.17656E-01   496   0.188E+00    0.571E-01
DAV:   3    -0.598005188804E+02    0.73354E-02   -0.19273E-02   480   0.777E-01    0.287E-01
DAV:   4    -0.597986131463E+02    0.19057E-02   -0.60758E-03   480   0.488E-01    0.808E-02
DAV:   5    -0.597985353037E+02    0.77843E-04   -0.68875E-04   512   0.174E-01
  26 F= -.59798535E+02 E0= -.59772935E+02  d E =-.102528E-01
 trial-energy change:   -0.010253  1 .order   -0.008613   -0.013880   -0.003345
 step:   0.2507(harm=  0.2865)  dis= 0.01603  next Energy=   -59.798797 (dE=-0.105E-01)
 bond charge predicted
       N       E                     dE             d eps       ncg     rms          rms(c)
DAV:   1    -0.597999218078E+02   -0.13087E-02   -0.89233E-02   448   0.205E+00    0.160E-01
DAV:   2    -0.597991031926E+02    0.81862E-03   -0.36523E-03   496   0.291E-01    0.849E-02
DAV:   3    -0.597989192835E+02    0.18391E-03   -0.40533E-04   376   0.119E-01    0.423E-02
DAV:   4    -0.597988819796E+02    0.37304E-04   -0.16272E-04   264   0.827E-02
  27 F= -.59798882E+02 E0= -.59773277E+02  d E =-.105995E-01
 curvature:  -1.45 expect dE=-0.641E-01 dE for cont linesearch -0.303E-04
 trial: gam= 0.45523 g(F)=  0.361E-01 g(S)=  0.799E-02 ort = 0.430E-02 (trialstep = 0.224E+00)
 search vector abs. value=  0.232E+00
 bond charge predicted
       N       E                     dE             d eps       ncg     rms          rms(c)
DAV:   1    -0.598220534416E+02   -0.23134E-01   -0.88868E-01   384   0.667E+00    0.607E-01
DAV:   2    -0.598106172045E+02    0.11436E-01   -0.58778E-02   448   0.118E+00    0.322E-01
DAV:   3    -0.598081857803E+02    0.24314E-02   -0.62665E-03   464   0.454E-01    0.161E-01
DAV:   4    -0.598074576911E+02    0.72809E-03   -0.18200E-03   496   0.261E-01    0.435E-02
DAV:   5    -0.598074750986E+02   -0.17407E-04   -0.19416E-04   320   0.963E-02
  28 F= -.59807475E+02 E0= -.59782352E+02  d E =-.859312E-02
 trial-energy change:   -0.008593  1 .order   -0.008732   -0.010320   -0.007144
 step:   0.7281(harm=  0.7281)  dis= 0.02316  next Energy=   -59.815646 (dE=-0.168E-01)
 bond charge predicted
       N       E                     dE             d eps       ncg     rms          rms(c)
DAV:   1    -0.598894791759E+02   -0.82021E-01   -0.45340E+00   384   0.150E+01    0.139E+00
DAV:   2    -0.598310363347E+02    0.58443E-01   -0.32534E-01   448   0.266E+00    0.733E-01
DAV:   3    -0.598180875379E+02    0.12949E-01   -0.31889E-02   464   0.102E+00    0.372E-01
DAV:   4    -0.598142241260E+02    0.38634E-02   -0.91904E-03   480   0.592E-01    0.101E-01
DAV:   5    -0.598141937036E+02    0.30422E-04   -0.11860E-03   512   0.219E-01    0.353E-02
DAV:   6    -0.598143239536E+02   -0.13025E-03   -0.16620E-04   352   0.655E-02    0.167E-02
DAV:   7    -0.598145442674E+02   -0.22031E-03   -0.64699E-05   320   0.414E-02    0.749E-03
DAV:   8    -0.598147129080E+02   -0.16864E-03   -0.36795E-05   336   0.265E-02    0.522E-03
DAV:   9    -0.598149027496E+02   -0.18984E-03   -0.63935E-05   336   0.296E-02    0.319E-03
DAV:  10    -0.598149533911E+02   -0.50641E-04   -0.12084E-05   320   0.154E-02
  29 F= -.59814953E+02 E0= -.59790875E+02  d E =-.160714E-01
 curvature:  -1.83 expect dE=-0.113E+00 dE for cont linesearch -0.719E-04
 trial: gam= 1.60846 g(F)=  0.554E-01 g(S)=  0.617E-02 ort =-0.302E-02 (trialstep = 0.116E+00)
 search vector abs. value=  0.651E+00
 bond charge predicted
       N       E                     dE             d eps       ncg     rms          rms(c)
DAV:   1    -0.598332386194E+02   -0.18336E-01   -0.61444E-01   384   0.553E+00    0.539E-01
DAV:   2    -0.598231409274E+02    0.10098E-01   -0.48575E-02   464   0.992E-01    0.276E-01
DAV:   3    -0.598214298224E+02    0.17111E-02   -0.43702E-03   432   0.383E-01    0.139E-01
DAV:   4    -0.598208735508E+02    0.55627E-03   -0.14320E-03   496   0.229E-01    0.363E-02
DAV:   5    -0.598208598787E+02    0.13672E-04   -0.13010E-04   320   0.816E-02
  30 F= -.59820860E+02 E0= -.59797419E+02  d E =-.590649E-02
 ZBRENT: can't locate minimum, use default step
 trial-energy change:   -0.005906  1 .order   -0.006071   -0.006556   -0.005587
 step:   0.4623(harm=  0.7821)  dis= 0.02619  next Energy=   -59.837134 (dE=-0.222E-01)
 bond charge predicted
       N       E                     dE             d eps       ncg     rms          rms(c)
DAV:   1    -0.599476422180E+02   -0.12677E+00   -0.56132E+00   384   0.166E+01    0.166E+00
DAV:   2    -0.598551025364E+02    0.92540E-01   -0.50248E-01   480   0.303E+00    0.844E-01
DAV:   3    -0.598379799608E+02    0.17123E-01   -0.41200E-02   456   0.119E+00    0.433E-01
DAV:   4    -0.598326009766E+02    0.53790E-02   -0.13352E-02   496   0.701E-01    0.118E-01
DAV:   5    -0.598324453716E+02    0.15561E-03   -0.16374E-03   512   0.254E-01    0.423E-02
DAV:   6    -0.598325799454E+02   -0.13457E-03   -0.27068E-04   368   0.867E-02    0.193E-02
DAV:   7    -0.598328364977E+02   -0.25655E-03   -0.85841E-05   320   0.503E-02    0.896E-03
DAV:   8    -0.598330342749E+02   -0.19778E-03   -0.51418E-05   336   0.318E-02    0.596E-03
DAV:   9    -0.598332505039E+02   -0.21623E-03   -0.80452E-05   336   0.343E-02    0.388E-03
DAV:  10    -0.598333084118E+02   -0.57908E-04   -0.14554E-05   336   0.183E-02
  31 F= -.59833308E+02 E0= -.59811590E+02  d E =-.183550E-01
 curvature:  -3.45 expect dE=-0.207E+00 dE for cont linesearch -0.278E-02
 ZBRENT: increasing intervall
 opt :   1.1558  next Energy=   -59.831513 (dE=-0.166E-01)
 bond charge predicted
       N       E                     dE             d eps       ncg     rms          rms(c)
DAV:   1    -0.603111714084E+02   -0.47792E+00   -0.23197E+01   384   0.336E+01    0.342E+00
DAV:   2    -0.599159475311E+02    0.39522E+00   -0.21776E+00   480   0.615E+00    0.168E+00
DAV:   3    -0.598510941664E+02    0.64853E-01   -0.16244E-01   432   0.250E+00    0.864E-01
DAV:   4    -0.598305893015E+02    0.20505E-01   -0.51607E-02   496   0.135E+00    0.247E-01
DAV:   5    -0.598294317685E+02    0.11575E-02   -0.75940E-03   512   0.509E-01    0.866E-02
DAV:   6    -0.598296553304E+02   -0.22356E-03   -0.13130E-03   496   0.183E-01    0.405E-02
DAV:   7    -0.598301414122E+02   -0.48608E-03   -0.21996E-04   336   0.760E-02    0.192E-02
DAV:   8    -0.598305861666E+02   -0.44475E-03   -0.21399E-04   368   0.612E-02    0.122E-02
DAV:   9    -0.598309548734E+02   -0.36871E-03   -0.15541E-04   336   0.513E-02    0.742E-03
DAV:  10    -0.598311163567E+02   -0.16148E-03   -0.69552E-05   368   0.334E-02    0.464E-03
DAV:  11    -0.598311844406E+02   -0.68084E-04   -0.23406E-05   352   0.216E-02
  32 F= -.59831184E+02 E0= -.59813397E+02  d E =-.162310E-01
 curvature:   2.23 expect dE= 0.549E+00 dE for cont linesearch  0.295E-02
 ZBRENT: bracketing found
 ZBRENT: interpolating
 opt :   0.7662  next Energy=   -59.836783 (dE=-0.218E-01)
 bond charge predicted
       N       E                     dE             d eps       ncg     rms          rms(c)
DAV:   1    -0.599763033263E+02   -0.14519E+00   -0.74367E+00   384   0.195E+01    0.179E+00
DAV:   2    -0.598614904915E+02    0.11481E+00   -0.34130E-01   432   0.339E+00    0.883E-01
DAV:   3    -0.598394803419E+02    0.22010E-01   -0.78579E-02   480   0.161E+00    0.311E-01
DAV:   4    -0.598370081484E+02    0.24722E-02   -0.87143E-03   464   0.478E-01    0.125E-01
DAV:   5    -0.598364598687E+02    0.54828E-03   -0.22379E-03   512   0.217E-01    0.520E-02
DAV:   6    -0.598363622400E+02    0.97629E-04   -0.60826E-04   400   0.112E-01
  33 F= -.59836362E+02 E0= -.59816582E+02  d E =-.214088E-01
 curvature:  -2.63 expect dE=-0.296E+00 dE for cont linesearch -0.200E-03
 trial: gam= 1.50840 g(F)=  0.104E+00 g(S)=  0.897E-02 ort =-0.703E-02 (trialstep = 0.102E+00)
 search vector abs. value=  0.157E+01
 bond charge predicted
       N       E                     dE             d eps       ncg     rms          rms(c)
DAV:   1    -0.598664615203E+02   -0.30002E-01   -0.11832E+00   384   0.764E+00    0.704E-01
DAV:   2    -0.598501582103E+02    0.16303E-01   -0.72309E-02   480   0.131E+00    0.359E-01
DAV:   3    -0.598473816133E+02    0.27766E-02   -0.69075E-03   424   0.524E-01    0.168E-01
DAV:   4    -0.598467732424E+02    0.60837E-03   -0.18732E-03   480   0.266E-01    0.477E-02
DAV:   5    -0.598467472641E+02    0.25978E-04   -0.21419E-04   344   0.996E-02
  34 F= -.59846747E+02 E0= -.59827794E+02  d E =-.103850E-01
 ZBRENT: can't locate minimum, use default step
 trial-energy change:   -0.010385  1 .order   -0.009458   -0.010382   -0.008534
 step:   0.4068(harm=  0.5715)  dis= 0.03639  next Energy=   -59.865532 (dE=-0.292E-01)
 bond charge predicted
       N       E                     dE             d eps       ncg     rms          rms(c)
DAV:   1    -0.600525600203E+02   -0.20579E+00   -0.10773E+01   384   0.229E+01    0.218E+00
DAV:   2    -0.598955412298E+02    0.15702E+00   -0.74620E-01   480   0.396E+00    0.110E+00
DAV:   3    -0.598668105968E+02    0.28731E-01   -0.65302E-02   432   0.161E+00    0.534E-01
DAV:   4    -0.598587201790E+02    0.80904E-02   -0.18159E-02   464   0.828E-01    0.155E-01
DAV:   5    -0.598584416349E+02    0.27854E-03   -0.24483E-03   512   0.312E-01    0.506E-02
DAV:   6    -0.598586534623E+02   -0.21183E-03   -0.41630E-04   400   0.105E-01    0.248E-02
DAV:   7    -0.598589768045E+02   -0.32334E-03   -0.12883E-04   320   0.595E-02    0.124E-02
DAV:   8    -0.598592541824E+02   -0.27738E-03   -0.81598E-05   336   0.397E-02    0.785E-03
DAV:   9    -0.598595475154E+02   -0.29333E-03   -0.13102E-04   336   0.441E-02    0.523E-03
DAV:  10    -0.598596310564E+02   -0.83541E-04   -0.26274E-05   368   0.238E-02
  35 F= -.59859631E+02 E0= -.59843839E+02  d E =-.232688E-01
 curvature:  -3.86 expect dE=-0.360E+00 dE for cont linesearch -0.600E-05
 trial: gam= 0.86473 g(F)=  0.879E-01 g(S)=  0.525E-02 ort = 0.156E-02 (trialstep = 0.163E+00)
 search vector abs. value=  0.127E+01
 bond charge predicted
       N       E                     dE             d eps       ncg     rms          rms(c)
DAV:   1    -0.599131043199E+02   -0.53557E-01   -0.25884E+00   384   0.112E+01    0.999E-01
DAV:   2    -0.598793074491E+02    0.33797E-01   -0.13291E-01   488   0.185E+00    0.504E-01
DAV:   3    -0.598728110399E+02    0.64964E-02   -0.16499E-02   456   0.794E-01    0.228E-01
DAV:   4    -0.598715312238E+02    0.12798E-02   -0.26345E-03   512   0.316E-01    0.828E-02
DAV:   5    -0.598714430278E+02    0.88196E-04   -0.37006E-04   400   0.117E-01
  36 F= -.59871443E+02 E0= -.59856812E+02  d E =-.118120E-01
 trial-energy change:   -0.011812  1 .order   -0.012452   -0.015380   -0.009523
 step:   0.4274(harm=  0.4274)  dis= 0.03529  next Energy=   -59.879826 (dE=-0.202E-01)
 bond charge predicted
       N       E                     dE             d eps       ncg     rms          rms(c)
DAV:   1    -0.599911624533E+02   -0.11963E+00   -0.69325E+00   384   0.183E+01    0.166E+00
DAV:   2    -0.598990070814E+02    0.92155E-01   -0.37606E-01   480   0.303E+00    0.829E-01
DAV:   3    -0.598814782088E+02    0.17529E-01   -0.43961E-02   472   0.130E+00    0.385E-01
DAV:   4    -0.598778947853E+02    0.35834E-02   -0.73330E-03   512   0.529E-01    0.139E-01
DAV:   5    -0.598777410129E+02    0.15377E-03   -0.10959E-03   512   0.196E-01    0.357E-02
DAV:   6    -0.598779491604E+02   -0.20815E-03   -0.16392E-04   384   0.708E-02    0.175E-02
DAV:   7    -0.598781951182E+02   -0.24596E-03   -0.82457E-05   336   0.454E-02    0.996E-03
DAV:   8    -0.598784489131E+02   -0.25379E-03   -0.71509E-05   352   0.364E-02    0.611E-03
DAV:   9    -0.598786610373E+02   -0.21212E-03   -0.91437E-05   352   0.365E-02    0.444E-03
DAV:  10    -0.598787266842E+02   -0.65647E-04   -0.23136E-05   384   0.223E-02
  37 F= -.59878727E+02 E0= -.59866106E+02  d E =-.190956E-01
 curvature:  -2.88 expect dE=-0.125E+00 dE for cont linesearch -0.147E-04
 trial: gam= 0.50910 g(F)=  0.312E-01 g(S)=  0.123E-01 ort =-0.255E-02 (trialstep = 0.216E+00)
 search vector abs. value=  0.371E+00
 bond charge predicted
       N       E                     dE             d eps       ncg     rms          rms(c)
DAV:   1    -0.599031531336E+02   -0.24492E-01   -0.12795E+00   384   0.803E+00    0.677E-01
DAV:   2    -0.598895768049E+02    0.13576E-01   -0.51037E-02   456   0.126E+00    0.334E-01
DAV:   3    -0.598867024464E+02    0.28744E-02   -0.95700E-03   488   0.608E-01    0.116E-01
DAV:   4    -0.598864072924E+02    0.29515E-03   -0.67244E-04   480   0.167E-01    0.467E-02
DAV:   5    -0.598863767521E+02    0.30540E-04   -0.12120E-04   336   0.653E-02
  38 F= -.59886377E+02 E0= -.59874227E+02  d E =-.765007E-02
 trial-energy change:   -0.007650  1 .order   -0.007789   -0.009114   -0.006465
 step:   0.7421(harm=  0.7421)  dis= 0.03635  next Energy=   -59.894407 (dE=-0.157E-01)
 bond charge predicted
       N       E                     dE             d eps       ncg     rms          rms(c)
DAV:   1    -0.599989516296E+02   -0.11254E+00   -0.77073E+00   384   0.196E+01    0.170E+00
DAV:   2    -0.599131874138E+02    0.85764E-01   -0.34580E-01   448   0.311E+00    0.832E-01
DAV:   3    -0.598963414113E+02    0.16846E-01   -0.53044E-02   504   0.146E+00    0.321E-01
DAV:   4    -0.598941281037E+02    0.22133E-02   -0.49940E-03   536   0.455E-01    0.121E-01
DAV:   5    -0.598939751905E+02    0.15291E-03   -0.90493E-04   512   0.174E-01    0.341E-02
DAV:   6    -0.598941473962E+02   -0.17221E-03   -0.11976E-04   384   0.687E-02    0.160E-02
DAV:   7    -0.598943559614E+02   -0.20857E-03   -0.70974E-05   352   0.444E-02    0.896E-03
DAV:   8    -0.598945232965E+02   -0.16734E-03   -0.35904E-05   376   0.318E-02    0.525E-03
DAV:   9    -0.598947144212E+02   -0.19112E-03   -0.74235E-05   352   0.345E-02    0.434E-03
DAV:  10    -0.598947637728E+02   -0.49352E-04   -0.15669E-05   384   0.206E-02
  39 F= -.59894764E+02 E0= -.59883921E+02  d E =-.160371E-01
 curvature:  -3.25 expect dE=-0.220E+00 dE for cont linesearch -0.178E-04
 trial: gam= 1.46002 g(F)=  0.565E-01 g(S)=  0.112E-01 ort = 0.142E-02 (trialstep = 0.138E+00)
 search vector abs. value=  0.862E+00
 bond charge predicted
       N       E                     dE             d eps       ncg     rms          rms(c)
DAV:   1    -0.599167414785E+02   -0.22027E-01   -0.13688E+00   448   0.802E+00    0.598E-01
DAV:   2    -0.599058741646E+02    0.10867E-01   -0.35665E-02   496   0.104E+00    0.300E-01
DAV:   3    -0.599034454967E+02    0.24287E-02   -0.78226E-03   480   0.526E-01    0.100E-01
DAV:   4    -0.599032616377E+02    0.18386E-03   -0.55779E-04   488   0.154E-01    0.401E-02
DAV:   5    -0.599032546077E+02    0.70300E-05   -0.86444E-05   320   0.572E-02
  40 F= -.59903255E+02 E0= -.59893264E+02  d E =-.849083E-02
 ZBRENT: can't locate minimum, use default step
 trial-energy change:   -0.008491  1 .order   -0.008633   -0.009637   -0.007629
 step:   0.5520(harm=  0.6624)  dis= 0.04369  next Energy=   -59.917895 (dE=-0.231E-01)
 bond charge predicted
       N       E                     dE             d eps       ncg     rms          rms(c)
DAV:   1    -0.600429188541E+02   -0.13966E+00   -0.12391E+01   448   0.239E+01    0.185E+00
DAV:   2    -0.599400296444E+02    0.10289E+00   -0.36767E-01   496   0.312E+00    0.916E-01
DAV:   3    -0.599186430876E+02    0.21387E-01   -0.64939E-02   480   0.156E+00    0.335E-01
DAV:   4    -0.599166783761E+02    0.19647E-02   -0.57150E-03   512   0.494E-01    0.131E-01
DAV:   5    -0.599166130353E+02    0.65341E-04   -0.10197E-03   496   0.184E-01    0.370E-02
DAV:   6    -0.599168139156E+02   -0.20088E-03   -0.15622E-04   376   0.755E-02    0.172E-02
DAV:   7    -0.599170470683E+02   -0.23315E-03   -0.92758E-05   368   0.511E-02    0.992E-03
DAV:   8    -0.599172232509E+02   -0.17618E-03   -0.40764E-05   384   0.357E-02    0.599E-03
DAV:   9    -0.599174513784E+02   -0.22813E-03   -0.10164E-04   352   0.396E-02    0.497E-03
DAV:  10    -0.599175053270E+02   -0.53949E-04   -0.18916E-05   384   0.231E-02
  41 F= -.59917505E+02 E0= -.59910029E+02  d E =-.227416E-01
 curvature:  -3.91 expect dE=-0.343E+00 dE for cont linesearch -0.935E-03
 trial: gam= 1.17544 g(F)=  0.667E-01 g(S)=  0.211E-01 ort = 0.144E-01 (trialstep = 0.145E+00)
 search vector abs. value=  0.131E+01
 bond charge predicted
       N       E                     dE             d eps       ncg     rms          rms(c)
DAV:   1    -0.599496470699E+02   -0.32196E-01   -0.24994E+00   384   0.105E+01    0.702E-01
DAV:   2    -0.599350027451E+02    0.14644E-01   -0.73733E-02   512   0.152E+00    0.358E-01
DAV:   3    -0.599315263000E+02    0.34764E-02   -0.10857E-02   496   0.614E-01    0.133E-01
DAV:   4    -0.599312679469E+02    0.25835E-03   -0.96929E-04   480   0.208E-01    0.518E-02
DAV:   5    -0.599312747188E+02   -0.67719E-05   -0.10899E-04   336   0.670E-02
  42 F= -.59931275E+02 E0= -.59924358E+02  d E =-.137694E-01
 ZBRENT: can't locate minimum, use default step
 trial-energy change:   -0.013769  1 .order   -0.014062   -0.015190   -0.012933
 step:   0.5800(harm=  0.9760)  dis= 0.05729  next Energy=   -59.968630 (dE=-0.511E-01)
 bond charge predicted
       N       E                     dE             d eps       ncg     rms          rms(c)
DAV:   1    -0.601340762121E+02   -0.20281E+00   -0.22580E+01   384   0.313E+01    0.220E+00
DAV:   2    -0.599902492522E+02    0.14383E+00   -0.79265E-01   496   0.478E+00    0.110E+00
DAV:   3    -0.599617938008E+02    0.28455E-01   -0.80134E-02   480   0.181E+00    0.484E-01
DAV:   4    -0.599580779318E+02    0.37159E-02   -0.12476E-02   504   0.737E-01    0.176E-01
DAV:   5    -0.599581322188E+02   -0.54287E-04   -0.14987E-03   512   0.237E-01    0.487E-02
DAV:   6    -0.599583806818E+02   -0.24846E-03   -0.26502E-04   384   0.884E-02    0.209E-02
DAV:   7    -0.599586659108E+02   -0.28523E-03   -0.11229E-04   384   0.560E-02    0.116E-02
DAV:   8    -0.599589286742E+02   -0.26276E-03   -0.72487E-05   368   0.409E-02    0.700E-03
DAV:   9    -0.599591952204E+02   -0.26655E-03   -0.13355E-04   392   0.432E-02    0.536E-03
DAV:  10    -0.599592747209E+02   -0.79500E-04   -0.32226E-05   384   0.270E-02
  43 F= -.59959275E+02 E0= -.59954046E+02  d E =-.417694E-01
 curvature:  -4.72 expect dE=-0.420E+00 dE for cont linesearch -0.617E-02
 ZBRENT: increasing intervall
 opt :   1.4499  next Energy=   -59.953722 (dE=-0.362E-01)
 bond charge predicted
       N       E                     dE             d eps       ncg     rms          rms(c)
DAV:   1    -0.606961703014E+02   -0.73698E+00   -0.91735E+01   384   0.629E+01    0.476E+00
DAV:   2    -0.600780439151E+02    0.61813E+00   -0.39931E+00   512   0.106E+01    0.229E+00
DAV:   3    -0.599694480076E+02    0.10860E+00   -0.33799E-01   464   0.380E+00    0.113E+00
DAV:   4    -0.599509106097E+02    0.18537E-01   -0.57888E-02   504   0.157E+00    0.412E-01
DAV:   5    -0.599502414589E+02    0.66915E-03   -0.66189E-03   512   0.502E-01    0.108E-01
DAV:   6    -0.599506662226E+02   -0.42476E-03   -0.13002E-03   496   0.185E-01    0.449E-02
DAV:   7    -0.599511963386E+02   -0.53012E-03   -0.30019E-04   400   0.871E-02    0.234E-02
DAV:   8    -0.599517312597E+02   -0.53492E-03   -0.24674E-04   416   0.701E-02    0.141E-02
DAV:   9    -0.599522248056E+02   -0.49355E-03   -0.29958E-04   448   0.659E-02    0.102E-02
DAV:  10    -0.599524258802E+02   -0.20107E-03   -0.85215E-05   384   0.384E-02    0.530E-03
DAV:  11    -0.599524957173E+02   -0.69837E-04   -0.32674E-05   368   0.222E-02
  44 F= -.59952496E+02 E0= -.59949917E+02  d E =-.349904E-01
 curvature:   4.25 expect dE= 0.260E+01 dE for cont linesearch  0.106E-01
 ZBRENT: bracketing found
 ZBRENT: interpolating
 opt :   0.9453  next Energy=   -59.966838 (dE=-0.493E-01)
 bond charge predicted
       N       E                     dE             d eps       ncg     rms          rms(c)
DAV:   1    -0.601765322187E+02   -0.22411E+00   -0.32235E+01   384   0.394E+01    0.241E+00
DAV:   2    -0.600279694958E+02    0.14856E+00   -0.80559E-01   464   0.594E+00    0.129E+00
DAV:   3    -0.599677533061E+02    0.60216E-01   -0.26660E-01   512   0.268E+00    0.352E-01
DAV:   4    -0.599663381994E+02    0.14151E-02   -0.12688E-02   496   0.736E-01    0.188E-01
DAV:   5    -0.599654939154E+02    0.84428E-03   -0.22102E-03   528   0.287E-01    0.561E-02
DAV:   6    -0.599654369297E+02    0.56986E-04   -0.29503E-04   368   0.122E-01
  45 F= -.59965437E+02 E0= -.59961694E+02  d E =-.479316E-01
 curvature:  -3.03 expect dE=-0.711E+00 dE for cont linesearch -0.665E-04
 trial: gam= 3.01059 g(F)=  0.193E+00 g(S)=  0.415E-01 ort =-0.536E-02 (trialstep = 0.331E-01)
 search vector abs. value=  0.121E+02
 bond charge predicted
       N       E                     dE             d eps       ncg     rms          rms(c)
DAV:   1    -0.599802730134E+02   -0.14779E-01   -0.12141E+00   384   0.732E+00    0.474E-01
DAV:   2    -0.599748380286E+02    0.54350E-02   -0.31109E-02   496   0.104E+00    0.246E-01
DAV:   3    -0.599734392331E+02    0.13988E-02   -0.67707E-03   496   0.472E-01    0.757E-02
DAV:   4    -0.599734571349E+02   -0.17902E-04   -0.39242E-04   512   0.132E-01
  46 F= -.59973457E+02 E0= -.59969848E+02  d E =-.802021E-02
 ZBRENT: can't locate minimum, use default step
 trial-energy change:   -0.008020  1 .order   -0.007216   -0.007221   -0.007210
 step:   0.1324(harm= 21.5670)  dis= 0.03957  next Energy=   -62.318533 (dE=-0.235E+01)
 bond charge predicted
       N       E                     dE             d eps       ncg     rms          rms(c)
DAV:   1    -0.600635711975E+02   -0.90132E-01   -0.10889E+01   384   0.217E+01    0.145E+00
DAV:   2    -0.600085088265E+02    0.55062E-01   -0.29998E-01   496   0.317E+00    0.739E-01
DAV:   3    -0.599935188996E+02    0.14990E-01   -0.52713E-02   496   0.138E+00    0.253E-01
DAV:   4    -0.599929135233E+02    0.60538E-03   -0.36404E-03   504   0.404E-01    0.111E-01
DAV:   5    -0.599930006620E+02   -0.87139E-04   -0.54285E-04   456   0.140E-01
  47 F= -.59993001E+02 E0= -.59989993E+02  d E =-.275637E-01
 curvature:  -5.50 expect dE=-0.106E+01 dE for cont linesearch -0.153E-01
 ZBRENT: increasing intervall
 opt :   0.3309  next Energy=   -60.022625 (dE=-0.572E-01)
 bond charge predicted
       N       E                     dE             d eps       ncg     rms          rms(c)
DAV:   1    -0.603188787447E+02   -0.32597E+00   -0.43887E+01   384   0.434E+01    0.304E+00
DAV:   2    -0.600779182641E+02    0.24096E+00   -0.13892E+00   472   0.677E+00    0.151E+00
DAV:   3    -0.600222431658E+02    0.55675E-01   -0.18025E-01   480   0.270E+00    0.605E-01
DAV:   4    -0.600180562503E+02    0.41869E-02   -0.18256E-02   528   0.895E-01    0.242E-01
DAV:   5    -0.600182885333E+02   -0.23228E-03   -0.20702E-03   480   0.281E-01    0.670E-02
DAV:   6    -0.600187032814E+02   -0.41475E-03   -0.47765E-04   448   0.122E-01    0.282E-02
DAV:   7    -0.600191380118E+02   -0.43473E-03   -0.18339E-04   368   0.717E-02    0.158E-02
DAV:   8    -0.600194702471E+02   -0.33224E-03   -0.96595E-05   384   0.494E-02    0.943E-03
DAV:   9    -0.600198660555E+02   -0.39581E-03   -0.26526E-04   432   0.600E-02    0.763E-03
DAV:  10    -0.600199382179E+02   -0.72162E-04   -0.31404E-05   384   0.306E-02
  48 F= -.60019938E+02 E0= -.60018000E+02  d E =-.545013E-01
 curvature: -10.64 expect dE=-0.241E+01 dE for cont linesearch -0.604E-02
 ZBRENT: increasing intervall
 opt :   0.7281  next Energy=   -60.012856 (dE=-0.474E-01)
 bond charge predicted
       N       E                     dE             d eps       ncg     rms          rms(c)
DAV:   1    -0.612676906696E+02   -0.12478E+01   -0.17976E+02   384   0.890E+01    0.684E+00
DAV:   2    -0.602430416891E+02    0.10246E+01   -0.75894E+00   480   0.161E+01    0.319E+00
DAV:   3    -0.600406373174E+02    0.20240E+00   -0.69997E-01   496   0.552E+00    0.158E+00
DAV:   4    -0.600123765709E+02    0.28261E-01   -0.94026E-02   488   0.201E+00    0.588E-01
DAV:   5    -0.600115415728E+02    0.83500E-03   -0.88274E-03   480   0.611E-01    0.149E-01
DAV:   6    -0.600121093456E+02   -0.56777E-03   -0.20145E-03   536   0.238E-01    0.583E-02
DAV:   7    -0.600127292264E+02   -0.61988E-03   -0.40774E-04   424   0.109E-01    0.301E-02
DAV:   8    -0.600133101598E+02   -0.58093E-03   -0.31405E-04   424   0.847E-02    0.169E-02
DAV:   9    -0.600138708774E+02   -0.56072E-03   -0.43808E-04   440   0.850E-02    0.137E-02
DAV:  10    -0.600140917692E+02   -0.22089E-03   -0.13469E-04   400   0.509E-02    0.659E-03
DAV:  11    -0.600141525951E+02   -0.60826E-04   -0.34984E-05   384   0.271E-02
  49 F= -.60014153E+02 E0= -.60013495E+02  d E =-.487157E-01
 curvature:  12.48 expect dE= 0.685E+01 dE for cont linesearch  0.197E-01
 ZBRENT: bracketing found
 ZBRENT: interpolating
 opt :   0.4798  next Energy=   -60.026107 (dE=-0.607E-01)
 bond charge predicted
       N       E                     dE             d eps       ncg     rms          rms(c)
DAV:   1    -0.604325586105E+02   -0.41847E+00   -0.75182E+01   384   0.619E+01    0.354E+00
DAV:   2    -0.601662370825E+02    0.26632E+00   -0.19028E+00   432   0.969E+00    0.193E+00
DAV:   3    -0.600323946584E+02    0.13384E+00   -0.60196E-01   496   0.410E+00    0.499E-01
DAV:   4    -0.600294746759E+02    0.29200E-02   -0.27717E-02   512   0.110E+00    0.282E-01
DAV:   5    -0.600274475569E+02    0.20271E-02   -0.62870E-03   512   0.458E-01    0.899E-02
DAV:   6    -0.600272112601E+02    0.23630E-03   -0.76847E-04   512   0.192E-01    0.446E-02
DAV:   7    -0.600271253046E+02    0.85955E-04   -0.33510E-04   448   0.979E-02
  50 F= -.60027125E+02 E0= -.60025940E+02  d E =-.616884E-01
 curvature:  -3.91 expect dE=-0.117E+01 dE for cont linesearch -0.229E-04
 trial: gam= 0.71148 g(F)=  0.170E+00 g(S)=  0.128E+00 ort =-0.842E-02 (trialstep = 0.122E+00)
 search vector abs. value=  0.641E+01
 bond charge predicted
       N       E                     dE             d eps       ncg     rms          rms(c)
DAV:   1    -0.601083798239E+02   -0.81169E-01   -0.86034E+00   384   0.193E+01    0.130E+00
DAV:   2    -0.600732164261E+02    0.35163E-01   -0.21560E-01   512   0.281E+00    0.667E-01
DAV:   3    -0.600618525655E+02    0.11364E-01   -0.54099E-02   496   0.140E+00    0.184E-01
DAV:   4    -0.600616603645E+02    0.19220E-03   -0.30906E-03   512   0.361E-01    0.941E-02
DAV:   5    -0.600616097741E+02    0.50590E-04   -0.36049E-04   424   0.124E-01
  51 F= -.60061610E+02 E0= -.60060542E+02  d E =-.344845E-01
 ZBRENT: can't locate minimum, use default step
 trial-energy change:   -0.034484  1 .order   -0.032505   -0.035794   -0.029217
 step:   0.4898(harm=  0.6664)  dis= 0.10422  next Energy=   -60.124525 (dE=-0.974E-01)
 bond charge predicted
       N       E                     dE             d eps       ncg     rms          rms(c)
DAV:   1    -0.605960871422E+02   -0.53443E+00   -0.77648E+01   384   0.574E+01    0.417E+00
DAV:   2    -0.602258140215E+02    0.37027E+00   -0.23478E+00   448   0.960E+00    0.208E+00
DAV:   3    -0.601222886026E+02    0.10353E+00   -0.39863E-01   464   0.412E+00    0.746E-01
DAV:   4    -0.601183088433E+02    0.39798E-02   -0.28034E-02   512   0.109E+00    0.329E-01
DAV:   5    -0.601184622834E+02   -0.15344E-03   -0.28420E-03   536   0.352E-01    0.925E-02
DAV:   6    -0.601190383725E+02   -0.57609E-03   -0.71590E-04   480   0.161E-01    0.350E-02
DAV:   7    -0.601195641703E+02   -0.52580E-03   -0.20372E-04   368   0.772E-02    0.181E-02
DAV:   8    -0.601199530715E+02   -0.38890E-03   -0.12226E-04   384   0.547E-02    0.995E-03
DAV:   9    -0.601203705653E+02   -0.41749E-03   -0.28368E-04   432   0.615E-02    0.915E-03
DAV:  10    -0.601204370716E+02   -0.66506E-04   -0.38482E-05   384   0.338E-02
  52 F= -.60120437E+02 E0= -.60119804E+02  d E =-.933118E-01
 curvature:  -6.54 expect dE=-0.120E+01 dE for cont linesearch -0.481E-02
 ZBRENT: extrapolating
 opt :   0.6383  next Energy=   -60.125537 (dE=-0.984E-01)
 bond charge predicted
       N       E                     dE             d eps       ncg     rms          rms(c)
DAV:   1    -0.602044683012E+02   -0.84098E-01   -0.13048E+01   384   0.238E+01    0.165E+00
DAV:   2    -0.601452538110E+02    0.59214E-01   -0.33214E-01   496   0.353E+00    0.842E-01
DAV:   3    -0.601249992583E+02    0.20255E-01   -0.89903E-02   488   0.180E+00    0.242E-01
DAV:   4    -0.601247349539E+02    0.26430E-03   -0.50885E-03   504   0.468E-01    0.126E-01
DAV:   5    -0.601247255165E+02    0.94375E-05   -0.62654E-04   512   0.159E-01
  53 F= -.60124726E+02 E0= -.60124245E+02  d E =-.976002E-01
 curvature:  -6.93 expect dE=-0.198E+01 dE for cont linesearch -0.267E-04
 trial: gam= 0.93633 g(F)=  0.276E+00 g(S)=  0.103E-01 ort =-0.497E-02 (trialstep = 0.226E+00)
 search vector abs. value=  0.590E+01
 bond charge predicted
       N       E                     dE             d eps       ncg     rms          rms(c)
DAV:   1    -0.603259164012E+02   -0.20118E+00   -0.28129E+01   384   0.346E+01    0.232E+00
DAV:   2    -0.602089510459E+02    0.11697E+00   -0.75561E-01   464   0.540E+00    0.119E+00
DAV:   3    -0.601695008964E+02    0.39450E-01   -0.15479E-01   504   0.244E+00    0.382E-01
DAV:   4    -0.601691870914E+02    0.31381E-03   -0.89133E-03   512   0.617E-01    0.188E-01
DAV:   5    -0.601694527786E+02   -0.26569E-03   -0.92453E-04   512   0.198E-01    0.478E-02
DAV:   6    -0.601697435539E+02   -0.29078E-03   -0.20132E-04   336   0.874E-02    0.196E-02
DAV:   7    -0.601700563173E+02   -0.31276E-03   -0.13747E-04   360   0.605E-02    0.142E-02
DAV:   8    -0.601702554532E+02   -0.19914E-03   -0.57351E-05   368   0.425E-02    0.644E-03
DAV:   9    -0.601704684441E+02   -0.21299E-03   -0.16422E-04   400   0.456E-02    0.689E-03
DAV:  10    -0.601704893876E+02   -0.20943E-04   -0.17745E-05   384   0.239E-02
  54 F= -.60170489E+02 E0= -.60169888E+02  d E =-.457639E-01
 trial-energy change:   -0.045764  1 .order   -0.044740   -0.063450   -0.026030
 step:   0.3506(harm=  0.3825)  dis= 0.06777  next Energy=   -60.177877 (dE=-0.532E-01)
 bond charge predicted
       N       E                     dE             d eps       ncg     rms          rms(c)
DAV:   1    -0.602265776429E+02   -0.56109E-01   -0.87739E+00   384   0.195E+01    0.128E+00
DAV:   2    -0.601915656771E+02    0.35012E-01   -0.22240E-01   424   0.290E+00    0.659E-01
DAV:   3    -0.601786013450E+02    0.12964E-01   -0.53886E-02   504   0.138E+00    0.193E-01
DAV:   4    -0.601785233481E+02    0.77997E-04   -0.27530E-03   512   0.346E-01    0.101E-01
DAV:   5    -0.601785476891E+02   -0.24341E-04   -0.26330E-04   384   0.112E-01
  55 F= -.60178548E+02 E0= -.60177887E+02  d E =-.538222E-01
 curvature:  -3.84 expect dE=-0.958E+00 dE for cont linesearch -0.160E-03
 trial: gam= 0.73387 g(F)=  0.205E+00 g(S)=  0.447E-01 ort = 0.157E-01 (trialstep = 0.251E+00)
 search vector abs. value=  0.345E+01
 bond charge predicted
       N       E                     dE             d eps       ncg     rms          rms(c)
DAV:   1    -0.603295515537E+02   -0.15103E+00   -0.20377E+01   384   0.294E+01    0.187E+00
DAV:   2    -0.602586338639E+02    0.70918E-01   -0.49887E-01   464   0.448E+00    0.980E-01
DAV:   3    -0.602317292581E+02    0.26905E-01   -0.10622E-01   512   0.203E+00    0.304E-01
DAV:   4    -0.602316601737E+02    0.69084E-04   -0.64373E-03   504   0.539E-01    0.156E-01
DAV:   5    -0.602318867379E+02   -0.22656E-03   -0.10579E-03   504   0.197E-01    0.443E-02
DAV:   6    -0.602320423663E+02   -0.15563E-03   -0.18803E-04   344   0.879E-02    0.204E-02
DAV:   7    -0.602322949197E+02   -0.25255E-03   -0.13480E-04   336   0.631E-02    0.119E-02
DAV:   8    -0.602324171610E+02   -0.12224E-03   -0.32251E-05   376   0.387E-02    0.646E-03
DAV:   9    -0.602326238022E+02   -0.20664E-03   -0.13957E-04   368   0.426E-02    0.695E-03
DAV:  10    -0.602326465031E+02   -0.22701E-04   -0.19093E-05   384   0.237E-02
  56 F= -.60232647E+02 E0= -.60231884E+02  d E =-.540988E-01
 trial-energy change:   -0.054099  1 .order   -0.053844   -0.065351   -0.042337
 step:   0.7116(harm=  0.7116)  dis= 0.11450  next Energy=   -60.271333 (dE=-0.928E-01)
 bond charge predicted
       N       E                     dE             d eps       ncg     rms          rms(c)
DAV:   1    -0.606183031428E+02   -0.38568E+00   -0.69780E+01   384   0.545E+01    0.367E+00
DAV:   2    -0.603569620428E+02    0.26134E+00   -0.19288E+00   440   0.893E+00    0.184E+00
DAV:   3    -0.602746819873E+02    0.82280E-01   -0.29821E-01   512   0.352E+00    0.698E-01
DAV:   4    -0.602718999863E+02    0.27820E-02   -0.22598E-02   496   0.995E-01    0.308E-01
DAV:   5    -0.602720230007E+02   -0.12301E-03   -0.24331E-03   488   0.313E-01    0.775E-02
DAV:   6    -0.602723215837E+02   -0.29858E-03   -0.56992E-04   496   0.142E-01    0.317E-02
DAV:   7    -0.602726701619E+02   -0.34858E-03   -0.15948E-04   360   0.701E-02    0.163E-02
DAV:   8    -0.602728814551E+02   -0.21129E-03   -0.61978E-05   352   0.422E-02    0.995E-03
DAV:   9    -0.602731978973E+02   -0.31644E-03   -0.23595E-04   400   0.562E-02    0.864E-03
DAV:  10    -0.602732485018E+02   -0.50604E-04   -0.25232E-05   384   0.252E-02
  57 F= -.60273249E+02 E0= -.60272388E+02  d E =-.947008E-01
 curvature:  -4.70 expect dE=-0.126E+01 dE for cont linesearch -0.183E-03
 trial: gam= 1.12830 g(F)=  0.248E+00 g(S)=  0.193E-01 ort = 0.116E-01 (trialstep = 0.252E+00)
 search vector abs. value=  0.468E+01
 bond charge predicted
       N       E                     dE             d eps       ncg     rms          rms(c)
DAV:   1    -0.604551526446E+02   -0.18195E+00   -0.29259E+01   384   0.351E+01    0.221E+00
DAV:   2    -0.603618596554E+02    0.93293E-01   -0.70845E-01   464   0.545E+00    0.115E+00
DAV:   3    -0.603265928768E+02    0.35267E-01   -0.14806E-01   504   0.237E+00    0.406E-01
DAV:   4    -0.603259764079E+02    0.61647E-03   -0.98016E-03   504   0.648E-01    0.197E-01
DAV:   5    -0.603259895210E+02   -0.13113E-04   -0.12600E-03   544   0.231E-01    0.590E-02
DAV:   6    -0.603261639558E+02   -0.17443E-03   -0.28932E-04   368   0.111E-01    0.237E-02
DAV:   7    -0.603263390778E+02   -0.17512E-03   -0.99882E-05   360   0.630E-02    0.111E-02
DAV:   8    -0.603264610550E+02   -0.12198E-03   -0.33001E-05   360   0.394E-02    0.621E-03
DAV:   9    -0.603266588074E+02   -0.19775E-03   -0.12107E-04   360   0.456E-02    0.729E-03
DAV:  10    -0.603266897125E+02   -0.30905E-04   -0.13600E-05   384   0.225E-02
  58 F= -.60326690E+02 E0= -.60326111E+02  d E =-.534412E-01
 trial-energy change:   -0.053441  1 .order   -0.053533   -0.070875   -0.036190
 step:   0.5157(harm=  0.5157)  dis= 0.10314  next Energy=   -60.345662 (dE=-0.724E-01)
 bond charge predicted
       N       E                     dE             d eps       ncg     rms          rms(c)
DAV:   1    -0.604909272903E+02   -0.16427E+00   -0.32207E+01   384   0.368E+01    0.234E+00
DAV:   2    -0.603860920486E+02    0.10484E+00   -0.78070E-01   472   0.577E+00    0.121E+00
DAV:   3    -0.603458570430E+02    0.40235E-01   -0.16520E-01   512   0.251E+00    0.435E-01
DAV:   4    -0.603450930838E+02    0.76396E-03   -0.10850E-02   512   0.682E-01    0.211E-01
DAV:   5    -0.603450964079E+02   -0.33241E-05   -0.14107E-03   544   0.244E-01    0.630E-02
DAV:   6    -0.603453005794E+02   -0.20417E-03   -0.31160E-04   352   0.117E-01    0.247E-02
DAV:   7    -0.603455015020E+02   -0.20092E-03   -0.11493E-04   368   0.671E-02    0.121E-02
DAV:   8    -0.603456469776E+02   -0.14548E-03   -0.41456E-05   336   0.427E-02    0.663E-03
DAV:   9    -0.603458583474E+02   -0.21137E-03   -0.13623E-04   424   0.468E-02    0.774E-03
DAV:  10    -0.603458920765E+02   -0.33729E-04   -0.12909E-05   384   0.226E-02
  59 F= -.60345892E+02 E0= -.60345562E+02  d E =-.726436E-01
 curvature:  -4.30 expect dE=-0.959E+00 dE for cont linesearch -0.891E-07
 trial: gam= 0.88443 g(F)=  0.172E+00 g(S)=  0.514E-01 ort = 0.312E-03 (trialstep = 0.305E+00)
 search vector abs. value=  0.389E+01
 bond charge predicted
       N       E                     dE             d eps       ncg     rms          rms(c)
DAV:   1    -0.605396798968E+02   -0.19382E+00   -0.35562E+01   384   0.389E+01    0.242E+00
DAV:   2    -0.604390907127E+02    0.10059E+00   -0.83978E-01   448   0.605E+00    0.127E+00
DAV:   3    -0.603981221074E+02    0.40969E-01   -0.17440E-01   496   0.273E+00    0.405E-01
DAV:   4    -0.603971959573E+02    0.92615E-03   -0.10896E-02   504   0.709E-01    0.202E-01
DAV:   5    -0.603971747342E+02    0.21223E-04   -0.17497E-03   528   0.266E-01    0.643E-02
DAV:   6    -0.603973384925E+02   -0.16376E-03   -0.37578E-04   448   0.132E-01    0.267E-02
DAV:   7    -0.603975242123E+02   -0.18572E-03   -0.10441E-04   368   0.612E-02    0.110E-02
DAV:   8    -0.603976440866E+02   -0.11987E-03   -0.31529E-05   360   0.364E-02    0.651E-03
DAV:   9    -0.603978469332E+02   -0.20285E-03   -0.11453E-04   392   0.395E-02    0.639E-03
DAV:  10    -0.603978901990E+02   -0.43266E-04   -0.16473E-05   384   0.186E-02
  60 F= -.60397890E+02 E0= -.60397520E+02  d E =-.519981E-01
 trial-energy change:   -0.051998  1 .order   -0.052174   -0.068104   -0.036244
 step:   0.6521(harm=  0.6521)  dis= 0.12409  next Energy=   -60.418682 (dE=-0.728E-01)
 bond charge predicted
       N       E                     dE             d eps       ncg     rms          rms(c)
DAV:   1    -0.606172676632E+02   -0.21942E+00   -0.46635E+01   384   0.446E+01    0.284E+00
DAV:   2    -0.604739663203E+02    0.14330E+00   -0.11324E+00   400   0.708E+00    0.147E+00
DAV:   3    -0.604202381617E+02    0.53728E-01   -0.22547E-01   504   0.311E+00    0.498E-01
DAV:   4    -0.604186421882E+02    0.15960E-02   -0.14318E-02   504   0.806E-01    0.240E-01
DAV:   5    -0.604185591160E+02    0.83072E-04   -0.20701E-03   528   0.294E-01    0.751E-02
DAV:   6    -0.604187660451E+02   -0.20693E-03   -0.42289E-04   464   0.143E-01    0.294E-02
DAV:   7    -0.604189874361E+02   -0.22139E-03   -0.12708E-04   368   0.669E-02    0.130E-02
DAV:   8    -0.604191345383E+02   -0.14710E-03   -0.42841E-05   368   0.414E-02    0.748E-03
DAV:   9    -0.604193719404E+02   -0.23740E-03   -0.15249E-04   416   0.446E-02    0.770E-03
DAV:  10    -0.604194198896E+02   -0.47949E-04   -0.14739E-05   384   0.193E-02
  61 F= -.60419420E+02 E0= -.60418991E+02  d E =-.735278E-01
 curvature:  -5.68 expect dE=-0.156E+01 dE for cont linesearch -0.104E-03
 trial: gam= 1.15256 g(F)=  0.265E+00 g(S)=  0.985E-02 ort = 0.843E-02 (trialstep = 0.267E+00)
 search vector abs. value=  0.546E+01
 bond charge predicted
       N       E                     dE             d eps       ncg     rms          rms(c)
DAV:   1    -0.606182155139E+02   -0.19884E+00   -0.39430E+01   384   0.414E+01    0.255E+00
DAV:   2    -0.605187736308E+02    0.99442E-01   -0.93044E-01   464   0.646E+00    0.131E+00
DAV:   3    -0.604742997023E+02    0.44474E-01   -0.16228E-01   504   0.268E+00    0.478E-01
DAV:   4    -0.604727699856E+02    0.15297E-02   -0.11519E-02   544   0.732E-01    0.223E-01
DAV:   5    -0.604727033454E+02    0.66640E-04   -0.12514E-03   488   0.231E-01    0.663E-02
DAV:   6    -0.604728589798E+02   -0.15563E-03   -0.20076E-04   336   0.102E-01    0.228E-02
DAV:   7    -0.604730497316E+02   -0.19075E-03   -0.12695E-04   336   0.671E-02    0.123E-02
DAV:   8    -0.604731600442E+02   -0.11031E-03   -0.30576E-05   360   0.420E-02    0.615E-03
DAV:   9    -0.604733543175E+02   -0.19427E-03   -0.10949E-04   368   0.412E-02    0.686E-03
DAV:  10    -0.604733956285E+02   -0.41311E-04   -0.14658E-05   384   0.217E-02
  62 F= -.60473396E+02 E0= -.60472983E+02  d E =-.539757E-01
 trial-energy change:   -0.053976  1 .order   -0.054111   -0.075900   -0.032323
 step:   0.4645(harm=  0.4645)  dis= 0.10588  next Energy=   -60.485520 (dE=-0.661E-01)
 bond charge predicted
       N       E                     dE             d eps       ncg     rms          rms(c)
DAV:   1    -0.605668601735E+02   -0.93506E-01   -0.21956E+01   384   0.310E+01    0.189E+00
DAV:   2    -0.605105382594E+02    0.56322E-01   -0.50988E-01   424   0.467E+00    0.978E-01
DAV:   3    -0.604846924288E+02    0.25846E-01   -0.97794E-02   488   0.204E+00    0.338E-01
DAV:   4    -0.604839909978E+02    0.70143E-03   -0.62412E-03   544   0.540E-01    0.165E-01
DAV:   5    -0.604839585030E+02    0.32495E-04   -0.73852E-04   512   0.174E-01
  63 F= -.60483959E+02 E0= -.60483553E+02  d E =-.645386E-01
 curvature:  -4.45 expect dE=-0.997E+00 dE for cont linesearch -0.355E-04
 trial: gam= 0.98698 g(F)=  0.215E+00 g(S)=  0.902E-02 ort =-0.659E-02 (trialstep = 0.302E+00)
 search vector abs. value=  0.553E+01
 bond charge predicted
       N       E                     dE             d eps       ncg     rms          rms(c)
DAV:   1    -0.607316429731E+02   -0.24765E+00   -0.53865E+01   384   0.486E+01    0.302E+00
DAV:   2    -0.605874188293E+02    0.14422E+00   -0.13209E+00   456   0.771E+00    0.151E+00
DAV:   3    -0.605296861676E+02    0.57733E-01   -0.18988E-01   488   0.292E+00    0.695E-01
DAV:   4    -0.605262695559E+02    0.34166E-02   -0.18848E-02   576   0.900E-01    0.305E-01
DAV:   5    -0.605262530036E+02    0.16552E-04   -0.13746E-03   472   0.245E-01    0.721E-02
DAV:   6    -0.605264942283E+02   -0.24122E-03   -0.28000E-04   376   0.105E-01    0.223E-02
DAV:   7    -0.605267869347E+02   -0.29271E-03   -0.17173E-04   376   0.724E-02    0.182E-02
DAV:   8    -0.605269551814E+02   -0.16825E-03   -0.49929E-05   360   0.408E-02    0.826E-03
DAV:   9    -0.605272308657E+02   -0.27568E-03   -0.20328E-04   392   0.500E-02    0.873E-03
DAV:  10    -0.605272974582E+02   -0.66593E-04   -0.27445E-05   368   0.298E-02
  64 F= -.60527297E+02 E0= -.60526725E+02  d E =-.433390E-01
 trial-energy change:   -0.043339  1 .order   -0.042724   -0.065746   -0.019701
 step:   0.4188(harm=  0.4318)  dis= 0.09608  next Energy=   -60.531126 (dE=-0.472E-01)
 bond charge predicted
       N       E                     dE             d eps       ncg     rms          rms(c)
DAV:   1    -0.605615619052E+02   -0.34331E-01   -0.81110E+00   384   0.190E+01    0.111E+00
DAV:   2    -0.605415372389E+02    0.20025E-01   -0.18548E-01   432   0.275E+00    0.573E-01
DAV:   3    -0.605319235558E+02    0.96137E-02   -0.34982E-02   496   0.118E+00    0.216E-01
DAV:   4    -0.605316412858E+02    0.28227E-03   -0.23919E-03   560   0.323E-01    0.109E-01
DAV:   5    -0.605316256903E+02    0.15595E-04   -0.20297E-04   368   0.953E-02
  65 F= -.60531626E+02 E0= -.60530963E+02  d E =-.476672E-01
 curvature:  -5.43 expect dE=-0.117E+01 dE for cont linesearch -0.285E-04
 trial: gam= 0.68632 g(F)=  0.196E+00 g(S)=  0.193E-01 ort = 0.538E-02 (trialstep = 0.326E+00)
 search vector abs. value=  0.283E+01
 bond charge predicted
       N       E                     dE             d eps       ncg     rms          rms(c)
DAV:   1    -0.607101106896E+02   -0.17847E+00   -0.29757E+01   384   0.367E+01    0.232E+00
DAV:   2    -0.606183559273E+02    0.91755E-01   -0.70180E-01   432   0.553E+00    0.118E+00
DAV:   3    -0.605829995088E+02    0.35356E-01   -0.14224E-01   504   0.246E+00    0.441E-01
DAV:   4    -0.605816392616E+02    0.13602E-02   -0.92840E-03   512   0.644E-01    0.217E-01
DAV:   5    -0.605815551677E+02    0.84094E-04   -0.17084E-03   504   0.245E-01    0.683E-02
DAV:   6    -0.605816827169E+02   -0.12755E-03   -0.29673E-04   376   0.113E-01    0.262E-02
DAV:   7    -0.605818911217E+02   -0.20840E-03   -0.14078E-04   352   0.726E-02    0.134E-02
DAV:   8    -0.605820322010E+02   -0.14108E-03   -0.40675E-05   376   0.463E-02    0.771E-03
DAV:   9    -0.605823008775E+02   -0.26868E-03   -0.16234E-04   408   0.502E-02    0.819E-03
DAV:  10    -0.605823631913E+02   -0.62314E-04   -0.16640E-05   368   0.239E-02
  66 F= -.60582363E+02 E0= -.60581410E+02  d E =-.507375E-01
 trial-energy change:   -0.050738  1 .order   -0.050422   -0.071289   -0.029555
 step:   0.5563(harm=  0.5563)  dis= 0.08856  next Energy=   -60.592513 (dE=-0.609E-01)
 bond charge predicted
       N       E                     dE             d eps       ncg     rms          rms(c)
DAV:   1    -0.606599242844E+02   -0.77623E-01   -0.15126E+01   384   0.263E+01    0.164E+00
DAV:   2    -0.606130237747E+02    0.46901E-01   -0.34918E-01   424   0.383E+00    0.839E-01
DAV:   3    -0.605943460781E+02    0.18678E-01   -0.78808E-02   504   0.178E+00    0.299E-01
DAV:   4    -0.605936869674E+02    0.65911E-03   -0.47966E-03   512   0.463E-01    0.154E-01
DAV:   5    -0.605936081807E+02    0.78787E-04   -0.10205E-03   504   0.186E-01    0.508E-02
DAV:   6    -0.605936625464E+02   -0.54366E-04   -0.16712E-04   336   0.860E-02
  67 F= -.60593663E+02 E0= -.60592392E+02  d E =-.620369E-01
 curvature:  -3.59 expect dE=-0.110E+01 dE for cont linesearch -0.120E-03
 trial: gam= 1.42473 g(F)=  0.290E+00 g(S)=  0.161E-01 ort = 0.972E-02 (trialstep = 0.173E+00)
 search vector abs. value=  0.607E+01
 bond charge predicted
       N       E                     dE             d eps       ncg     rms          rms(c)
DAV:   1    -0.607292104409E+02   -0.13560E+00   -0.17621E+01   384   0.285E+01    0.182E+00
DAV:   2    -0.606663860184E+02    0.62824E-01   -0.41741E-01   456   0.414E+00    0.924E-01
DAV:   3    -0.606429872029E+02    0.23399E-01   -0.92888E-02   504   0.192E+00    0.328E-01
DAV:   4    -0.606423393573E+02    0.64785E-03   -0.52333E-03   504   0.484E-01    0.162E-01
DAV:   5    -0.606423378423E+02    0.15150E-05   -0.97779E-04   472   0.189E-01
  68 F= -.60642338E+02 E0= -.60641287E+02  d E =-.486753E-01
 ZBRENT: can't locate minimum, use default step
 trial-energy change:   -0.048675  1 .order   -0.049927   -0.055302   -0.044551
 step:   0.6924(harm=  0.8904)  dis= 0.15681  next Energy=   -60.735892 (dE=-0.142E+00)
 bond charge predicted
       N       E                     dE             d eps       ncg     rms          rms(c)
DAV:   1    -0.616330197327E+02   -0.99068E+00   -0.16056E+02   384   0.866E+01    0.649E+00
DAV:   2    -0.609156043156E+02    0.71742E+00   -0.53009E+00   448   0.151E+01    0.291E+00
DAV:   3    -0.607534512969E+02    0.16215E+00   -0.57933E-01   520   0.529E+00    0.152E+00
DAV:   4    -0.607334253848E+02    0.20026E-01   -0.60216E-02   544   0.164E+00    0.589E-01
DAV:   5    -0.607318228243E+02    0.16026E-02   -0.59121E-03   544   0.506E-01    0.137E-01
DAV:   6    -0.607321331664E+02   -0.31034E-03   -0.99160E-04   488   0.208E-01    0.438E-02
DAV:   7    -0.607325515544E+02   -0.41839E-03   -0.28600E-04   432   0.102E-01    0.296E-02
DAV:   8    -0.607330162613E+02   -0.46471E-03   -0.24073E-04   400   0.792E-02    0.176E-02
DAV:   9    -0.607336226070E+02   -0.60635E-03   -0.40062E-04   416   0.767E-02    0.144E-02
DAV:  10    -0.607338669436E+02   -0.24434E-03   -0.88956E-05   416   0.406E-02    0.631E-03
DAV:  11    -0.607339918705E+02   -0.12493E-03   -0.31954E-05   360   0.218E-02    0.335E-03
DAV:  12    -0.607340968856E+02   -0.10502E-03   -0.38270E-05   352   0.168E-02    0.206E-03
DAV:  13    -0.607341327962E+02   -0.35911E-04   -0.13358E-05   360   0.112E-02
  69 F= -.60734133E+02 E0= -.60733085E+02  d E =-.140470E+00
 curvature:  -7.82 expect dE=-0.183E+01 dE for cont linesearch -0.949E-02
 ZBRENT: increasing intervall
 opt :   1.7311  next Energy=   -60.645131 (dE=-0.515E-01)
 bond charge predicted
       N       E                     dE             d eps       ncg     rms          rms(c)
DAV:   1    -0.650913383200E+02   -0.43572E+01   -0.73596E+02   448   0.210E+02    0.169E+01
DAV:   2    -0.612614771136E+02    0.38299E+01   -0.41737E+01   488   0.355E+01    0.652E+00
DAV:   3    -0.607929653544E+02    0.46851E+00   -0.24324E+00   520   0.104E+01    0.444E+00
DAV:   4    -0.606680699720E+02    0.12490E+00   -0.37814E-01   520   0.440E+00    0.151E+00
DAV:   5    -0.606584733808E+02    0.95966E-02   -0.50763E-02   584   0.147E+00    0.354E-01
DAV:   6    -0.606592019921E+02   -0.72861E-03   -0.61912E-03   480   0.533E-01    0.123E-01
DAV:   7    -0.606603881999E+02   -0.11862E-02   -0.12763E-03   488   0.233E-01    0.619E-02
DAV:   8    -0.606622339804E+02   -0.18458E-02   -0.11126E-03   456   0.171E-01    0.355E-02
DAV:   9    -0.606637825013E+02   -0.15485E-02   -0.78132E-04   432   0.122E-01    0.222E-02
DAV:  10    -0.606645201587E+02   -0.73766E-03   -0.32923E-04   448   0.728E-02    0.110E-02
DAV:  11    -0.606648620158E+02   -0.34186E-03   -0.12014E-04   416   0.372E-02    0.587E-03
DAV:  12    -0.606649560934E+02   -0.94078E-04   -0.23042E-05   368   0.189E-02
  70 F= -.60664956E+02 E0= -.60653847E+02  d E =-.712935E-01
 curvature:  73.33 expect dE= 0.107E+03 dE for cont linesearch  0.106E+01
 ZBRENT: bracketing found
 ZBRENT: interpolating
 opt :   0.9260  next Energy=   -60.744158 (dE=-0.150E+00)
 bond charge predicted
       N       E                     dE             d eps       ncg     rms          rms(c)
DAV:   1    -0.624234875586E+02   -0.17586E+01   -0.50878E+02   384   0.187E+02    0.825E+00
DAV:   2    -0.615870267361E+02    0.83646E+00   -0.14702E+01   472   0.298E+01    0.478E+00
DAV:   3    -0.607868493814E+02    0.80018E+00   -0.35061E+00   496   0.109E+01    0.122E+00
DAV:   4    -0.607645771172E+02    0.22272E-01   -0.16713E-01   504   0.273E+00    0.682E-01
DAV:   5    -0.607502905142E+02    0.14287E-01   -0.47360E-02   504   0.126E+00    0.227E-01
DAV:   6    -0.607478319306E+02    0.24586E-02   -0.47200E-03   520   0.463E-01    0.131E-01
DAV:   7    -0.607457560292E+02    0.20759E-02   -0.23220E-03   512   0.283E-01    0.673E-02
DAV:   8    -0.607459786429E+02   -0.22261E-03   -0.14045E-03   504   0.210E-01    0.574E-02
DAV:   9    -0.607470974098E+02   -0.11188E-02   -0.11839E-03   464   0.173E-01    0.341E-02
DAV:  10    -0.607482238757E+02   -0.11265E-02   -0.39509E-04   400   0.124E-01    0.199E-02
DAV:  11    -0.607488061263E+02   -0.58225E-03   -0.10183E-04   352   0.743E-02    0.963E-03
DAV:  12    -0.607490092063E+02   -0.20308E-03   -0.43192E-05   344   0.394E-02    0.436E-03
DAV:  13    -0.607490400327E+02   -0.30826E-04   -0.12558E-05   320   0.224E-02
  71 F= -.60749040E+02 E0= -.60747952E+02  d E =-.155377E+00
 curvature:  -0.70 expect dE=-0.298E+00 dE for cont linesearch -0.127E-03
 trial: gam= 1.43845 g(F)=  0.407E+00 g(S)=  0.216E-01 ort = 0.332E-01 (trialstep = 0.150E+00)
 search vector abs. value=  0.131E+02
 bond charge predicted
       N       E                     dE             d eps       ncg     rms          rms(c)
DAV:   1    -0.609534545496E+02   -0.20445E+00   -0.29684E+01   384   0.370E+01    0.244E+00
DAV:   2    -0.608422915805E+02    0.11116E+00   -0.75603E-01   480   0.559E+00    0.122E+00
DAV:   3    -0.608004185578E+02    0.41873E-01   -0.13922E-01   496   0.241E+00    0.485E-01
DAV:   4    -0.607987427255E+02    0.16758E-02   -0.10046E-02   528   0.640E-01    0.232E-01
DAV:   5    -0.607986323397E+02    0.11039E-03   -0.96208E-04   496   0.191E-01    0.601E-02
DAV:   6    -0.607988005198E+02   -0.16818E-03   -0.16262E-04   368   0.826E-02    0.204E-02
DAV:   7    -0.607990719448E+02   -0.27143E-03   -0.11739E-04   336   0.648E-02    0.147E-02
DAV:   8    -0.607993377769E+02   -0.26583E-03   -0.62902E-05   352   0.472E-02    0.722E-03
DAV:   9    -0.607997415483E+02   -0.40377E-03   -0.18108E-04   416   0.428E-02    0.727E-03
DAV:  10    -0.607998861516E+02   -0.14460E-03   -0.40084E-05   360   0.268E-02    0.370E-03
DAV:  11    -0.607999826722E+02   -0.96521E-04   -0.35972E-05   352   0.181E-02
  72 F= -.60799983E+02 E0= -.60797357E+02  d E =-.509426E-01
 trial-energy change:   -0.050943  1 .order   -0.050126   -0.071568   -0.028684
 step:   0.2354(harm=  0.2506)  dis= 0.07627  next Energy=   -60.808267 (dE=-0.592E-01)
 bond charge predicted
       N       E                     dE             d eps       ncg     rms          rms(c)
DAV:   1    -0.608607962718E+02   -0.60910E-01   -0.97193E+00   384   0.213E+01    0.137E+00
DAV:   2    -0.608241611353E+02    0.36635E-01   -0.24069E-01   448   0.313E+00    0.693E-01
DAV:   3    -0.608093208626E+02    0.14840E-01   -0.50957E-02   480   0.142E+00    0.250E-01
DAV:   4    -0.608088745519E+02    0.44631E-03   -0.31528E-03   504   0.358E-01    0.129E-01
DAV:   5    -0.608088375748E+02    0.36977E-04   -0.38539E-04   488   0.118E-01
  73 F= -.60808838E+02 E0= -.60804572E+02  d E =-.597975E-01
 curvature:  -3.36 expect dE=-0.819E+00 dE for cont linesearch -0.204E-03
 trial: gam= 0.46301 g(F)=  0.180E+00 g(S)=  0.633E-01 ort = 0.282E-01 (trialstep = 0.167E+00)
 search vector abs. value=  0.307E+01
 bond charge predicted
       N       E                     dE             d eps       ncg     rms          rms(c)
DAV:   1    -0.608899475108E+02   -0.81073E-01   -0.76118E+00   384   0.194E+01    0.132E+00
DAV:   2    -0.608575592314E+02    0.32388E-01   -0.18404E-01   416   0.280E+00    0.684E-01
DAV:   3    -0.608445877288E+02    0.12972E-01   -0.50944E-02   488   0.150E+00    0.191E-01
DAV:   4    -0.608442322231E+02    0.35551E-03   -0.29447E-03   512   0.373E-01    0.106E-01
DAV:   5    -0.608442590694E+02   -0.26846E-04   -0.72966E-04   480   0.159E-01
  74 F= -.60844259E+02 E0= -.60838214E+02  d E =-.354215E-01
 trial-energy change:   -0.035421  1 .order   -0.036883   -0.042913   -0.030854
 step:   0.5950(harm=  0.5950)  dis= 0.08727  next Energy=   -60.885191 (dE=-0.764E-01)
 bond charge predicted
       N       E                     dE             d eps       ncg     rms          rms(c)
DAV:   1    -0.612204203175E+02   -0.37619E+00   -0.50001E+01   384   0.488E+01    0.365E+00
DAV:   2    -0.609597969451E+02    0.26062E+00   -0.13932E+00   432   0.755E+00    0.180E+00
DAV:   3    -0.608849955153E+02    0.74801E-01   -0.27092E-01   480   0.356E+00    0.639E-01
DAV:   4    -0.608801506985E+02    0.48448E-02   -0.19348E-02   520   0.902E-01    0.300E-01
[...]
DAV:   3    -0.613832024717E+02    0.22171E-02   -0.43820E-03   488   0.438E-01    0.958E-02
DAV:   4    -0.613830976724E+02    0.10480E-03   -0.68515E-04   456   0.170E-01    0.471E-02
DAV:   5    -0.613831627062E+02   -0.65034E-04   -0.12347E-04   296   0.738E-02
 113 F= -.61383163E+02 E0= -.61383145E+02  d E =-.111267E-01
 curvature:  -1.42 expect dE=-0.518E-01 dE for cont linesearch -0.122E-04
 trial: gam= 0.73680 g(F)=  0.350E-01 g(S)=  0.144E-02 ort =-0.142E-02 (trialstep = 0.302E+00)
 search vector abs. value=  0.161E+00
 bond charge predicted
       N       E                     dE             d eps       ncg     rms          rms(c)
DAV:   1    -0.613917848415E+02   -0.86872E-02   -0.98732E-01   384   0.723E+00    0.377E-01
DAV:   2    -0.613909680857E+02    0.81676E-03   -0.20910E-02   536   0.101E+00    0.222E-01
DAV:   3    -0.613896349187E+02    0.13332E-02   -0.24272E-03   488   0.333E-01    0.781E-02
DAV:   4    -0.613895291996E+02    0.10572E-03   -0.41057E-04   448   0.135E-01    0.347E-02
DAV:   5    -0.613895314685E+02   -0.22689E-05   -0.71727E-05   288   0.573E-02
 114 F= -.61389531E+02 E0= -.61389517E+02  d E =-.636876E-02
 trial-energy change:   -0.006369  1 .order   -0.006534   -0.010696   -0.002373
 step:   0.3885(harm=  0.3885)  dis= 0.00836  next Energy=   -61.390035 (dE=-0.687E-02)
 bond charge predicted
       N       E                     dE             d eps       ncg     rms          rms(c)
DAV:   1    -0.613900244695E+02   -0.49527E-03   -0.80387E-02   400   0.207E+00    0.106E-01
DAV:   2    -0.613899464916E+02    0.77978E-04   -0.17116E-03   544   0.291E-01    0.626E-02
DAV:   3    -0.613898272468E+02    0.11924E-03   -0.19624E-04   320   0.990E-02    0.210E-02
DAV:   4    -0.613898150785E+02    0.12168E-04   -0.50137E-05   272   0.528E-02
 115 F= -.61389815E+02 E0= -.61389801E+02  d E =-.665237E-02
 curvature:  -0.89 expect dE=-0.278E-01 dE for cont linesearch -0.328E-06
 trial: gam= 0.84017 g(F)=  0.307E-01 g(S)=  0.696E-03 ort =-0.244E-03 (trialstep = 0.320E+00)
 search vector abs. value=  0.145E+00
 bond charge predicted
       N       E                     dE             d eps       ncg     rms          rms(c)
DAV:   1    -0.613980281696E+02   -0.82009E-02   -0.99833E-01   384   0.725E+00    0.369E-01
DAV:   2    -0.613974870070E+02    0.54116E-03   -0.22293E-02   576   0.102E+00    0.222E-01
DAV:   3    -0.613962820032E+02    0.12050E-02   -0.26169E-03   520   0.342E-01    0.879E-02
DAV:   4    -0.613961371284E+02    0.14487E-03   -0.47201E-04   488   0.141E-01    0.389E-02
DAV:   5    -0.613961077252E+02    0.29403E-04   -0.94434E-05   312   0.666E-02
 116 F= -.61396108E+02 E0= -.61396094E+02  d E =-.629265E-02
 trial-energy change:   -0.006293  1 .order   -0.006440   -0.009958   -0.002922
 step:   0.4523(harm=  0.4523)  dis= 0.00866  next Energy=   -61.396862 (dE=-0.705E-02)
 bond charge predicted
       N       E                     dE             d eps       ncg     rms          rms(c)
DAV:   1    -0.613970144551E+02   -0.87733E-03   -0.17217E-01   384   0.301E+00    0.151E-01
DAV:   2    -0.613968947302E+02    0.11972E-03   -0.38476E-03   568   0.429E-01    0.912E-02
DAV:   3    -0.613966723802E+02    0.22235E-03   -0.46957E-04   456   0.146E-01    0.350E-02
DAV:   4    -0.613966441192E+02    0.28261E-04   -0.83583E-05   280   0.655E-02
 117 F= -.61396644E+02 E0= -.61396631E+02  d E =-.682904E-02
 curvature:  -1.05 expect dE=-0.145E-01 dE for cont linesearch -0.297E-07
 trial: gam= 0.46086 g(F)=  0.119E-01 g(S)=  0.193E-02 ort =-0.640E-04 (trialstep = 0.346E+00)
 search vector abs. value=  0.445E-01
 bond charge predicted
       N       E                     dE             d eps       ncg     rms          rms(c)
DAV:   1    -0.614007743700E+02   -0.41020E-02   -0.33230E-01   384   0.421E+00    0.227E-01
DAV:   2    -0.614005228841E+02    0.25149E-03   -0.78516E-03   568   0.609E-01    0.136E-01
DAV:   3    -0.614000756214E+02    0.44726E-03   -0.82444E-04   480   0.191E-01    0.516E-02
DAV:   4    -0.614000074825E+02    0.68139E-04   -0.12968E-04   272   0.770E-02
 118 F= -.61400007E+02 E0= -.61399998E+02  d E =-.336336E-02
 trial-energy change:   -0.003363  1 .order   -0.003510   -0.004767   -0.002254
 step:   0.6566(harm=  0.6566)  dis= 0.00659  next Energy=   -61.401165 (dE=-0.452E-02)
 bond charge predicted
       N       E                     dE             d eps       ncg     rms          rms(c)
DAV:   1    -0.614014669443E+02   -0.13913E-02   -0.26723E-01   384   0.377E+00    0.202E-01
DAV:   2    -0.614012676789E+02    0.19927E-03   -0.63553E-03   568   0.549E-01    0.121E-01
DAV:   3    -0.614009029849E+02    0.36469E-03   -0.68347E-04   488   0.173E-01    0.465E-02
DAV:   4    -0.614008450363E+02    0.57949E-04   -0.10708E-04   264   0.699E-02
 119 F= -.61400845E+02 E0= -.61400838E+02  d E =-.420092E-02
 curvature:  -1.06 expect dE=-0.188E-01 dE for cont linesearch -0.606E-06
 trial: gam= 1.31131 g(F)=  0.164E-01 g(S)=  0.130E-02 ort =-0.159E-03 (trialstep = 0.194E+00)
 search vector abs. value=  0.938E-01
 bond charge predicted
       N       E                     dE             d eps       ncg     rms          rms(c)
DAV:   1    -0.614043194843E+02   -0.34165E-02   -0.20453E-01   384   0.323E+00    0.183E-01
DAV:   2    -0.614040193101E+02    0.30017E-03   -0.42839E-03   576   0.450E-01    0.109E-01
DAV:   3    -0.614036883251E+02    0.33099E-03   -0.53600E-04   496   0.147E-01    0.347E-02
DAV:   4    -0.614036480140E+02    0.40311E-04   -0.63764E-05   272   0.542E-02
 120 F= -.61403648E+02 E0= -.61403643E+02  d E =-.280298E-02
 trial-energy change:   -0.002803  1 .order   -0.002953   -0.003391   -0.002514
 step:   0.7491(harm=  0.7491)  dis= 0.01383  next Energy=   -61.407404 (dE=-0.656E-02)
 bond charge predicted
       N       E                     dE             d eps       ncg     rms          rms(c)
DAV:   1    -0.614124780627E+02   -0.87897E-02   -0.16892E+00   384   0.928E+00    0.529E-01
DAV:   2    -0.614102055540E+02    0.22725E-02   -0.35606E-02   576   0.128E+00    0.313E-01
DAV:   3    -0.614075950643E+02    0.26105E-02   -0.45068E-03   480   0.423E-01    0.975E-02
DAV:   4    -0.614073463684E+02    0.24870E-03   -0.55868E-04   504   0.152E-01    0.389E-02
DAV:   5    -0.614073392885E+02    0.70800E-05   -0.10949E-04   288   0.653E-02
 121 F= -.61407339E+02 E0= -.61407336E+02  d E =-.649425E-02
 curvature:  -2.01 expect dE=-0.281E-01 dE for cont linesearch -0.649E-04
 trial: gam= 0.66275 g(F)=  0.133E-01 g(S)=  0.746E-03 ort = 0.174E-02 (trialstep = 0.305E+00)
 search vector abs. value=  0.575E-01
 bond charge predicted
       N       E                     dE             d eps       ncg     rms          rms(c)
DAV:   1    -0.614121317382E+02   -0.47854E-02   -0.34991E-01   384   0.424E+00    0.213E-01
DAV:   2    -0.614118640810E+02    0.26766E-03   -0.67433E-03   520   0.572E-01    0.128E-01
DAV:   3    -0.614113919253E+02    0.47216E-03   -0.92873E-04   496   0.196E-01    0.339E-02
DAV:   4    -0.614113604099E+02    0.31515E-04   -0.11250E-04   288   0.743E-02
 122 F= -.61411360E+02 E0= -.61411358E+02  d E =-.402112E-02
 ZBRENT: can't locate minimum, use default step
 trial-energy change:   -0.004021  1 .order   -0.004169   -0.004623   -0.003714
 step:   1.2189(harm=  1.5503)  dis= 0.01946  next Energy=   -61.419099 (dE=-0.118E-01)
 bond charge predicted
       N       E                     dE             d eps       ncg     rms          rms(c)
DAV:   1    -0.614244026065E+02   -0.13011E-01   -0.31610E+00   384   0.128E+01    0.650E-01
DAV:   2    -0.614223901788E+02    0.20124E-02   -0.61779E-02   528   0.170E+00    0.388E-01
DAV:   3    -0.614182578734E+02    0.41323E-02   -0.84558E-03   536   0.588E-01    0.102E-01
DAV:   4    -0.614181035459E+02    0.15433E-03   -0.10722E-03   464   0.210E-01    0.506E-02
DAV:   5    -0.614181294533E+02   -0.25907E-04   -0.24939E-04   328   0.956E-02
 123 F= -.61418129E+02 E0= -.61418127E+02  d E =-.107902E-01
 curvature:  -2.73 expect dE=-0.353E-01 dE for cont linesearch -0.716E-03
 trial: gam= 0.00000 g(F)=  0.107E-01 g(S)=  0.216E-02 ort = 0.388E-02 (trialstep = 0.488E+00)
 search vector abs. value=  0.129E-01
 bond charge predicted
       N       E                     dE             d eps       ncg     rms          rms(c)
DAV:   1    -0.614194248744E+02   -0.13213E-02   -0.32068E-01   384   0.409E+00    0.206E-01
DAV:   2    -0.614193806351E+02    0.44239E-04   -0.92708E-03   520   0.672E-01    0.124E-01
DAV:   3    -0.614190181199E+02    0.36252E-03   -0.16737E-03   520   0.288E-01    0.378E-02
DAV:   4    -0.614190024327E+02    0.15687E-04   -0.26736E-04   376   0.102E-01
 124 F= -.61419002E+02 E0= -.61419001E+02  d E =-.872979E-03
 trial-energy change:   -0.000873  1 .order   -0.000813   -0.006292    0.004665
 step:   0.2800(harm=  0.2800)  dis= 0.00222  next Energy=   -61.419936 (dE=-0.181E-02)
 bond charge predicted
       N       E                     dE             d eps       ncg     rms          rms(c)
DAV:   1    -0.614200350583E+02   -0.10169E-02   -0.58051E-02   384   0.174E+00    0.866E-02
DAV:   2    -0.614200234975E+02    0.11561E-04   -0.16803E-03   520   0.286E-01    0.521E-02
DAV:   3    -0.614199581598E+02    0.65338E-04   -0.27077E-04   368   0.120E-01
 125 F= -.61419958E+02 E0= -.61419956E+02  d E =-.182871E-02
 curvature:  -0.14 expect dE=-0.937E-03 dE for cont linesearch -0.267E-06
 trial: gam= 0.50651 g(F)=  0.613E-02 g(S)=  0.564E-03 ort = 0.157E-03 (trialstep = 0.446E+00)
 search vector abs. value=  0.102E-01
 bond charge predicted
       N       E                     dE             d eps       ncg     rms          rms(c)
DAV:   1    -0.614216114588E+02   -0.15880E-02   -0.18441E-01   384   0.310E+00    0.144E-01
DAV:   2    -0.614215604365E+02    0.51022E-04   -0.43917E-03   504   0.454E-01    0.871E-02
DAV:   3    -0.614213948078E+02    0.16563E-03   -0.66116E-04   504   0.175E-01    0.345E-02
DAV:   4    -0.614213858586E+02    0.89493E-05   -0.81758E-05   288   0.594E-02
 126 F= -.61421386E+02 E0= -.61421384E+02  d E =-.142770E-02
 trial-energy change:   -0.001428  1 .order   -0.001455   -0.003021    0.000111
 step:   0.4303(harm=  0.4303)  dis= 0.00291  next Energy=   -61.421415 (dE=-0.146E-02)
 bond charge predicted
       N       E                     dE             d eps       ncg     rms          rms(c)
DAV:   1    -0.614213852743E+02    0.95335E-05   -0.25193E-04   360   0.115E-01    0.786E-03
DAV:   2    -0.614213853559E+02   -0.81609E-07   -0.11371E-05   232   0.280E-02
 127 F= -.61421385E+02 E0= -.61421383E+02  d E =-.142720E-02
 curvature:  -0.32 expect dE=-0.193E-02 dE for cont linesearch -0.197E-07
 trial: gam= 0.91621 g(F)=  0.506E-02 g(S)=  0.922E-03 ort = 0.249E-04 (trialstep = 0.309E+00)
 search vector abs. value=  0.146E-01
 bond charge predicted
       N       E                     dE             d eps       ncg     rms          rms(c)
DAV:   1    -0.614230312169E+02   -0.16459E-02   -0.11068E-01   384   0.242E+00    0.104E-01
DAV:   2    -0.614229843543E+02    0.46863E-04   -0.19475E-03   512   0.295E-01    0.636E-02
DAV:   3    -0.614228943584E+02    0.89996E-04   -0.25990E-04   336   0.115E-01
 128 F= -.61422894E+02 E0= -.61422892E+02  d E =-.150900E-02
 trial-energy change:   -0.001509  1 .order   -0.001531   -0.001856   -0.001206
 step:   0.8829(harm=  0.8829)  dis= 0.00644  next Energy=   -61.424036 (dE=-0.265E-02)
 bond charge predicted
       N       E                     dE             d eps       ncg     rms          rms(c)
DAV:   1    -0.614243887097E+02   -0.14044E-02   -0.38082E-01   384   0.449E+00    0.197E-01
DAV:   2    -0.614242275924E+02    0.16112E-03   -0.67377E-03   512   0.545E-01    0.121E-01
DAV:   3    -0.614239171210E+02    0.31047E-03   -0.97572E-04   504   0.212E-01    0.433E-02
DAV:   4    -0.614238904924E+02    0.26629E-04   -0.12995E-04   248   0.759E-02
 129 F= -.61423890E+02 E0= -.61423888E+02  d E =-.250514E-02
 curvature:  -1.07 expect dE=-0.649E-02 dE for cont linesearch -0.669E-05
 trial: gam= 1.07686 g(F)=  0.506E-02 g(S)=  0.101E-02 ort =-0.302E-03 (trialstep = 0.277E+00)
 search vector abs. value=  0.223E-01
 bond charge predicted
       N       E                     dE             d eps       ncg     rms          rms(c)
DAV:   1    -0.614252452607E+02   -0.13281E-02   -0.12067E-01   384   0.256E+00    0.126E-01
DAV:   2    -0.614250805041E+02    0.16476E-03   -0.25612E-03   504   0.346E-01    0.755E-02
DAV:   3    -0.614249457472E+02    0.13476E-03   -0.50607E-04   480   0.134E-01    0.290E-02
DAV:   4    -0.614249321150E+02    0.13632E-04   -0.53179E-05   224   0.493E-02
 130 F= -.61424932E+02 E0= -.61424930E+02  d E =-.104162E-02
 trial-energy change:   -0.001042  1 .order   -0.001086   -0.001589   -0.000583
 step:   0.4374(harm=  0.4374)  dis= 0.00429  next Energy=   -61.425146 (dE=-0.126E-02)
 bond charge predicted
       N       E                     dE             d eps       ncg     rms          rms(c)
DAV:   1    -0.614251844836E+02   -0.23874E-03   -0.40687E-02   384   0.149E+00    0.729E-02
DAV:   2    -0.614251204277E+02    0.64056E-04   -0.86103E-04   472   0.201E-01
 131 F= -.61425120E+02 E0= -.61425118E+02  d E =-.122994E-02
 curvature:  -0.85 expect dE=-0.546E-02 dE for cont linesearch -0.295E-04
 trial: gam= 0.91781 g(F)=  0.419E-02 g(S)=  0.224E-02 ort = 0.879E-03 (trialstep = 0.257E+00)
 search vector abs. value=  0.268E-01
 bond charge predicted
       N       E                     dE             d eps       ncg     rms          rms(c)
DAV:   1    -0.614271050816E+02   -0.19206E-02   -0.94280E-02   384   0.237E+00    0.161E-01
DAV:   2    -0.614266731377E+02    0.43194E-03   -0.21233E-03   512   0.318E-01    0.916E-02
DAV:   3    -0.614264500503E+02    0.22309E-03   -0.74405E-04   472   0.169E-01    0.260E-02
DAV:   4    -0.614264340196E+02    0.16031E-04   -0.56924E-05   232   0.565E-02
 132 F= -.61426434E+02 E0= -.61426432E+02  d E =-.131359E-02
 trial-energy change:   -0.001314  1 .order   -0.001578   -0.001857   -0.001298
 step:   0.8529(harm=  0.8529)  dis= 0.00602  next Energy=   -61.428205 (dE=-0.308E-02)
 bond charge predicted
       N       E                     dE             d eps       ncg     rms          rms(c)
DAV:   1    -0.614320787554E+02   -0.56287E-02   -0.51966E-01   384   0.554E+00    0.360E-01
DAV:   2    -0.614298100502E+02    0.22687E-02   -0.11651E-02   488   0.746E-01    0.201E-01
DAV:   3    -0.614287548322E+02    0.10552E-02   -0.41827E-03   472   0.394E-01    0.612E-02
DAV:   4    -0.614286827160E+02    0.72116E-04   -0.39081E-04   392   0.137E-01
 133 F= -.61428683E+02 E0= -.61428681E+02  d E =-.356229E-02
 curvature:  -1.58 expect dE=-0.120E-01 dE for cont linesearch -0.685E-03
 trial: gam= 0.00000 g(F)=  0.656E-02 g(S)=  0.103E-02 ort = 0.341E-02 (trialstep = 0.376E+00)
 search vector abs. value=  0.759E-02
 bond charge predicted
       N       E                     dE             d eps       ncg     rms          rms(c)
DAV:   1    -0.614299235145E+02   -0.11687E-02   -0.98089E-02   384   0.220E+00    0.108E-01
DAV:   2    -0.614299439484E+02   -0.20434E-04   -0.31974E-03   488   0.368E-01    0.643E-02
DAV:   3    -0.614298395654E+02    0.10438E-03   -0.41860E-04   456   0.133E-01    0.261E-02
DAV:   4    -0.614298278961E+02    0.11669E-04   -0.60408E-05   240   0.506E-02
 134 F= -.61429828E+02 E0= -.61429825E+02  d E =-.114518E-02
 trial-energy change:   -0.001145  1 .order   -0.001246   -0.002853    0.000360
 step:   0.3338(harm=  0.3338)  dis= 0.00217  next Energy=   -61.429949 (dE=-0.127E-02)
 bond charge predicted
       N       E                     dE             d eps       ncg     rms          rms(c)
DAV:   1    -0.614298462531E+02   -0.66878E-05   -0.13243E-03   432   0.254E-01    0.139E-02
DAV:   2    -0.614298454397E+02    0.81339E-06   -0.41190E-05   224   0.485E-02
 135 F= -.61429845E+02 E0= -.61429843E+02  d E =-.116272E-02
 curvature:  -0.17 expect dE=-0.678E-03 dE for cont linesearch -0.100E-05
 trial: gam= 0.56372 g(F)=  0.349E-02 g(S)=  0.574E-03 ort =-0.214E-03 (trialstep = 0.368E+00)
 search vector abs. value=  0.623E-02
 bond charge predicted
       N       E                     dE             d eps       ncg     rms          rms(c)
DAV:   1    -0.614310051535E+02   -0.11589E-02   -0.53643E-02   384   0.172E+00    0.785E-02
DAV:   2    -0.614309822180E+02    0.22936E-04   -0.10112E-03   544   0.221E-01    0.471E-02
DAV:   3    -0.614309354806E+02    0.46737E-04   -0.10114E-04   264   0.757E-02
 136 F= -.61430935E+02 E0= -.61430933E+02  d E =-.109004E-02
 trial-energy change:   -0.001090  1 .order   -0.001103   -0.001449   -0.000757
 step:   0.7695(harm=  0.7695)  dis= 0.00408  next Energy=   -61.431363 (dE=-0.152E-02)
 bond charge predicted
       N       E                     dE             d eps       ncg     rms          rms(c)
DAV:   1    -0.614313790425E+02   -0.39682E-03   -0.63695E-02   384   0.188E+00    0.878E-02
DAV:   2    -0.614313522670E+02    0.26775E-04   -0.11889E-03   576   0.236E-01    0.535E-02
DAV:   3    -0.614312942580E+02    0.58009E-04   -0.11532E-04   272   0.800E-02
 137 F= -.61431294E+02 E0= -.61431291E+02  d E =-.144882E-02
 curvature:  -0.61 expect dE=-0.538E-02 dE for cont linesearch -0.582E-06
 trial: gam= 2.22931 g(F)=  0.782E-02 g(S)=  0.103E-02 ort =-0.772E-04 (trialstep = 0.707E-01)
 search vector abs. value=  0.395E-01
 bond charge predicted
       N       E                     dE             d eps       ncg     rms          rms(c)
DAV:   1    -0.614318574960E+02   -0.50523E-03   -0.12446E-02   384   0.819E-01    0.420E-02
DAV:   2    -0.614318415686E+02    0.15927E-04   -0.24143E-04   416   0.110E-01
 138 F= -.61431842E+02 E0= -.61431839E+02  d E =-.547311E-03
 ZBRENT: can't locate minimum, use default step
 trial-energy change:   -0.000547  1 .order   -0.000572   -0.000613   -0.000530
 step:   0.2829(harm=  0.5201)  dis= 0.00359  next Energy=   -61.433549 (dE=-0.225E-02)
 bond charge predicted
       N       E                     dE             d eps       ncg     rms          rms(c)
DAV:   1    -0.614329994353E+02   -0.11419E-02   -0.11141E-01   384   0.244E+00    0.125E-01
DAV:   2    -0.614328789694E+02    0.12047E-03   -0.22604E-03   528   0.319E-01    0.747E-02
DAV:   3    -0.614327465182E+02    0.13245E-03   -0.32586E-04   432   0.114E-01    0.248E-02
DAV:   4    -0.614327368715E+02    0.96467E-05   -0.36520E-05   256   0.426E-02
 139 F= -.61432737E+02 E0= -.61432734E+02  d E =-.144261E-02
 curvature:  -0.85 expect dE=-0.277E-02 dE for cont linesearch -0.800E-04
 trial: gam= 0.08804 g(F)=  0.217E-02 g(S)=  0.107E-02 ort = 0.192E-02 (trialstep = 0.113E+00)
 search vector abs. value=  0.389E-02
 bond charge predicted
       N       E                     dE             d eps       ncg     rms          rms(c)
DAV:   1    -0.614330914989E+02   -0.34498E-03   -0.33279E-03   392   0.427E-01    0.239E-02
DAV:   2    -0.614330793028E+02    0.12196E-04   -0.81515E-05   240   0.684E-02
 140 F= -.61433079E+02 E0= -.61433076E+02  d E =-.342431E-03
 ZBRENT: can't locate minimum, use default step
 trial-energy change:   -0.000342  1 .order   -0.000357   -0.000386   -0.000327
 step:   0.4527(harm=  0.7390)  dis= 0.00237  next Energy=   -61.433998 (dE=-0.126E-02)
 bond charge predicted
       N       E                     dE             d eps       ncg     rms          rms(c)
DAV:   1    -0.614337694069E+02   -0.67791E-03   -0.29548E-02   384   0.127E+00    0.725E-02
DAV:   2    -0.614336941404E+02    0.75266E-04   -0.77690E-04   504   0.196E-01
 141 F= -.61433694E+02 E0= -.61433691E+02  d E =-.957269E-03
 curvature:  -0.33 expect dE=-0.897E-03 dE for cont linesearch -0.138E-03
 trial: gam= 0.00000 g(F)=  0.139E-02 g(S)=  0.131E-02 ort = 0.127E-02 (trialstep = 0.181E+00)
 search vector abs. value=  0.270E-02
 reached required accuracy - stopping structural energy minimisation
 writing wavefunctions
Sun Mar  6 20:08:15 CST 2022
