Sun Mar  6 20:29:18 CST 2022
 running on   48 total cores
 distrk:  each k-point on   48 cores,    1 groups
 distr:  one band on   24 cores,    2 groups
 using from now: INCAR     
 vasp.5.3.5 31Mar14 (build Jan 11 2016 19:50:55) complex                        
  
 POSCAR found type information on POSCAR  B  C  Na
 POSCAR found :  3 types and       9 ions
 scaLAPACK will be used

 ----------------------------------------------------------------------------- 
|                                                                             |
|           W    W    AA    RRRRR   N    N  II  N    N   GGGG   !!!           |
|           W    W   A  A   R    R  NN   N  II  NN   N  G    G  !!!           |
|           W    W  A    A  R    R  N N  N  II  N N  N  G       !!!           |
|           W WW W  AAAAAA  RRRRR   N  N N  II  N  N N  G  GGG   !            |
|           WW  WW  A    A  R   R   N   NN  II  N   NN  G    G                |
|           W    W  A    A  R    R  N    N  II  N    N   GGGG   !!!           |
|                                                                             |
|      For optimal performance we recommend to set                            |
|        NCORE= 4 - approx SQRT( number of cores)                             |
|      NCORE specifies how many cores store one orbital (NPAR=cpu/NCORE).     |
|      This setting can  greatly improve the performance of VASP for DFT.     |
|      The default, NPAR=number of cores might be grossly inefficient         |
|      on modern multi-core architectures or massively parallel machines.     |
|      Do your own testing !!!!                                               |
|      Unfortunately you need to use the default for GW and RPA calculations. |
|      (for HF NCORE is supported but not extensively tested yet)             |
|                                                                             |
 ----------------------------------------------------------------------------- 

 LDA part: xc-table for Pade appr. of Perdew
 POSCAR, INCAR and KPOINTS ok, starting setup
 WARNING: small aliasing (wrap around) errors must be expected
 FFT: planning ...
 WAVECAR not read
 entering main loop
       N       E                     dE             d eps       ncg     rms          rms(c)
DAV:   1     0.276980352714E+03    0.27698E+03   -0.12664E+04   456   0.896E+02
DAV:   2    -0.251907142644E+02   -0.30217E+03   -0.29372E+03   608   0.244E+02
DAV:   3    -0.722628978216E+02   -0.47072E+02   -0.46789E+02   464   0.105E+02
DAV:   4    -0.741865320190E+02   -0.19236E+01   -0.19121E+01   560   0.276E+01
DAV:   5    -0.742245785249E+02   -0.38047E-01   -0.37992E-01   528   0.334E+00    0.132E+01
DAV:   6    -0.678190456058E+02    0.64055E+01   -0.97482E+00   560   0.199E+01    0.739E+00
DAV:   7    -0.656889459625E+02    0.21301E+01   -0.57689E+00   504   0.125E+01    0.359E+00
DAV:   8    -0.651461116812E+02    0.54283E+00   -0.16763E+00   504   0.684E+00    0.167E+00
DAV:   9    -0.649877334259E+02    0.15838E+00   -0.23422E-01   528   0.275E+00    0.594E-01
DAV:  10    -0.649458491684E+02    0.41884E-01   -0.35177E-02   488   0.105E+00    0.375E-01
DAV:  11    -0.649441938920E+02    0.16553E-02   -0.12995E-02   512   0.699E-01    0.200E-01
DAV:  12    -0.649402438135E+02    0.39501E-02   -0.45909E-03   448   0.315E-01    0.168E-01
DAV:  13    -0.649428621404E+02   -0.26183E-02   -0.41494E-03   520   0.348E-01    0.768E-02
DAV:  14    -0.649446615134E+02   -0.17994E-02   -0.16732E-03   432   0.148E-01    0.540E-02
DAV:  15    -0.649480398046E+02   -0.33783E-02   -0.21057E-03   416   0.152E-01    0.378E-02
DAV:  16    -0.649498836612E+02   -0.18439E-02   -0.99152E-04   360   0.106E-01    0.159E-02
DAV:  17    -0.649506892265E+02   -0.80557E-03   -0.21494E-04   296   0.550E-02    0.950E-03
DAV:  18    -0.649510391576E+02   -0.34993E-03   -0.84330E-05   288   0.309E-02    0.618E-03
DAV:  19    -0.649511234721E+02   -0.84315E-04   -0.30152E-05   272   0.199E-02
   1 F= -.64951123E+02 E0= -.64900365E+02  d E =-.649511E+02
 curvature:   0.00 expect dE= 0.000E+00 dE for cont linesearch  0.000E+00
 trial: gam= 0.00000 g(F)=  0.138E+01 g(S)=  0.150E+00 ort = 0.000E+00 (trialstep = 0.100E+01)
 search vector abs. value=  0.153E+01
 bond charge predicted
       N       E                     dE             d eps       ncg     rms          rms(c)
DAV:   1    -0.643758671076E+02    0.57517E+00   -0.20721E+02   384   0.111E+02    0.416E+00
DAV:   2    -0.646894285831E+02   -0.31356E+00   -0.67255E+00   480   0.173E+01    0.233E+00
DAV:   3    -0.646387367934E+02    0.50692E-01   -0.30820E-01   432   0.382E+00    0.182E+00
DAV:   4    -0.646097836755E+02    0.28953E-01   -0.95349E-02   496   0.193E+00    0.656E-01
DAV:   5    -0.646063247940E+02    0.34589E-02   -0.16954E-02   464   0.829E-01    0.247E-01
DAV:   6    -0.646041222191E+02    0.22026E-02   -0.55004E-03   408   0.467E-01    0.917E-02
DAV:   7    -0.646039206189E+02    0.20160E-03   -0.11536E-03   424   0.208E-01    0.414E-02
DAV:   8    -0.646039089624E+02    0.11657E-04   -0.11858E-04   384   0.776E-02
   2 F= -.64603909E+02 E0= -.64565875E+02  d E =0.347215E+00
 trial-energy change:    0.347215  1 .order    0.322180   -1.531011    2.175372
 step:   0.4033(harm=  0.4131)  dis= 0.05656  next Energy=   -65.258226 (dE=-0.307E+00)
 bond charge predicted
       N       E                     dE             d eps       ncg     rms          rms(c)
DAV:   1    -0.653152543053E+02   -0.71133E+00   -0.67976E+01   384   0.541E+01    0.224E+00
DAV:   2    -0.653638860998E+02   -0.48632E-01   -0.24061E+00   464   0.951E+00    0.153E+00
DAV:   3    -0.652813704562E+02    0.82516E-01   -0.17064E-01   464   0.297E+00    0.908E-01
DAV:   4    -0.652715392440E+02    0.98312E-02   -0.89500E-02   424   0.172E+00    0.502E-01
DAV:   5    -0.652627170270E+02    0.88222E-02   -0.23448E-02   400   0.715E-01    0.144E-01
DAV:   6    -0.652625323922E+02    0.18463E-03   -0.35859E-03   472   0.387E-01    0.598E-02
DAV:   7    -0.652625867969E+02   -0.54405E-04   -0.33145E-04   384   0.115E-01
   3 F= -.65262587E+02 E0= -.65215870E+02  d E =-.311463E+00
 curvature:  -0.21 expect dE=-0.110E+00 dE for cont linesearch -0.726E-04
 trial: gam= 0.36171 g(F)=  0.467E+00 g(S)=  0.635E-01 ort =-0.232E-01 (trialstep = 0.881E+00)
 search vector abs. value=  0.714E+00
 bond charge predicted
       N       E                     dE             d eps       ncg     rms          rms(c)
DAV:   1    -0.653252223553E+02   -0.62690E-01   -0.82755E+01   416   0.616E+01    0.223E+00
DAV:   2    -0.653645014002E+02   -0.39279E-01   -0.21333E+00   472   0.913E+00    0.135E+00
DAV:   3    -0.653311990631E+02    0.33302E-01   -0.14780E-01   448   0.213E+00    0.813E-01
DAV:   4    -0.653165420585E+02    0.14657E-01   -0.55705E-02   424   0.118E+00    0.400E-01
DAV:   5    -0.653117650812E+02    0.47770E-02   -0.17553E-02   432   0.650E-01    0.103E-01
DAV:   6    -0.653115748973E+02    0.19018E-03   -0.13543E-03   464   0.229E-01    0.487E-02
DAV:   7    -0.653115403740E+02    0.34523E-04   -0.27498E-04   424   0.924E-02
   4 F= -.65311540E+02 E0= -.65269070E+02  d E =-.489536E-01
 trial-energy change:   -0.048954  1 .order   -0.066157   -0.459878    0.327565
 step:   0.4858(harm=  0.5143)  dis= 0.05890  next Energy=   -65.386532 (dE=-0.124E+00)
 bond charge predicted
       N       E                     dE             d eps       ncg     rms          rms(c)
DAV:   1    -0.653963029055E+02   -0.84728E-01   -0.15267E+01   384   0.239E+01    0.981E-01
DAV:   2    -0.653964470800E+02   -0.14417E-03   -0.35742E-01   464   0.374E+00    0.594E-01
DAV:   3    -0.653902663496E+02    0.61807E-02   -0.27513E-02   472   0.101E+00    0.307E-01
DAV:   4    -0.653885396234E+02    0.17267E-02   -0.93372E-03   464   0.540E-01    0.157E-01
DAV:   5    -0.653878097365E+02    0.72989E-03   -0.21849E-03   424   0.254E-01    0.524E-02
DAV:   6    -0.653877884625E+02    0.21274E-04   -0.33415E-04   424   0.103E-01
   5 F= -.65387788E+02 E0= -.65343411E+02  d E =-.125202E+00
 curvature:  -0.35 expect dE=-0.567E-01 dE for cont linesearch -0.214E-05
 trial: gam= 0.38561 g(F)=  0.161E+00 g(S)=  0.968E-03 ort =-0.209E-02 (trialstep = 0.802E+00)
 search vector abs. value=  0.267E+00
 bond charge predicted
       N       E                     dE             d eps       ncg     rms          rms(c)
DAV:   1    -0.653881215144E+02   -0.31178E-03   -0.26727E+01   384   0.338E+01    0.118E+00
DAV:   2    -0.654035511748E+02   -0.15430E-01   -0.81440E-01   480   0.522E+00    0.656E-01
DAV:   3    -0.653989471045E+02    0.46041E-02   -0.48091E-02   488   0.123E+00    0.423E-01
DAV:   4    -0.653967617924E+02    0.21853E-02   -0.11684E-02   464   0.592E-01    0.248E-01
DAV:   5    -0.653955104703E+02    0.12513E-02   -0.62149E-03   432   0.430E-01    0.508E-02
DAV:   6    -0.653954835200E+02    0.26950E-04   -0.53598E-04   448   0.147E-01
   6 F= -.65395484E+02 E0= -.65350634E+02  d E =-.769506E-02
 trial-energy change:   -0.007695  1 .order   -0.006948   -0.129296    0.115401
 step:   0.4273(harm=  0.4236)  dis= 0.03402  next Energy=   -65.422356 (dE=-0.346E-01)
 bond charge predicted
       N       E                     dE             d eps       ncg     rms          rms(c)
DAV:   1    -0.654242101982E+02   -0.28700E-01   -0.56373E+00   384   0.147E+01    0.533E-01
DAV:   2    -0.654239298374E+02    0.28036E-03   -0.13156E-01   448   0.226E+00    0.304E-01
DAV:   3    -0.654230762155E+02    0.85362E-03   -0.87210E-03   480   0.617E-01    0.181E-01
DAV:   4    -0.654228080872E+02    0.26813E-03   -0.21358E-03   424   0.244E-01    0.107E-01
DAV:   5    -0.654226056034E+02    0.20248E-03   -0.91631E-04   408   0.147E-01    0.277E-02
DAV:   6    -0.654226082371E+02   -0.26336E-05   -0.10238E-04   336   0.604E-02
   7 F= -.65422608E+02 E0= -.65378114E+02  d E =-.348198E-01
 curvature:  -0.35 expect dE=-0.318E-01 dE for cont linesearch -0.451E-06
 trial: gam= 0.62471 g(F)=  0.795E-01 g(S)=  0.114E-01 ort =-0.586E-03 (trialstep = 0.727E+00)
 search vector abs. value=  0.194E+00
 bond charge predicted
       N       E                     dE             d eps       ncg     rms          rms(c)
DAV:   1    -0.654350628857E+02   -0.12457E-01   -0.14706E+01   384   0.240E+01    0.647E-01
DAV:   2    -0.654546701917E+02   -0.19607E-01   -0.33116E-01   504   0.339E+00    0.411E-01
DAV:   3    -0.654536767792E+02    0.99341E-03   -0.17136E-02   488   0.866E-01    0.259E-01
DAV:   4    -0.654532999128E+02    0.37687E-03   -0.42315E-03   400   0.422E-01    0.130E-01
DAV:   5    -0.654531656654E+02    0.13425E-03   -0.97632E-04   400   0.192E-01    0.386E-02
DAV:   6    -0.654531938535E+02   -0.28188E-04   -0.72928E-05   352   0.569E-02
   8 F= -.65453194E+02 E0= -.65409861E+02  d E =-.305856E-01
 trial-energy change:   -0.030586  1 .order   -0.030730   -0.065779    0.004320
 step:   0.6820(harm=  0.6820)  dis= 0.04669  next Energy=   -65.453471 (dE=-0.309E-01)
 bond charge predicted
       N       E                     dE             d eps       ncg     rms          rms(c)
DAV:   1    -0.654532788661E+02   -0.11320E-03   -0.54383E-02   384   0.140E+00    0.413E-02
DAV:   2    -0.654533283747E+02   -0.49509E-04   -0.99371E-04   496   0.200E-01
   9 F= -.65453328E+02 E0= -.65409975E+02  d E =-.307201E-01
 curvature:  -0.73 expect dE=-0.332E-01 dE for cont linesearch -0.145E-04
 trial: gam= 0.55740 g(F)=  0.403E-01 g(S)=  0.513E-02 ort = 0.196E-02 (trialstep = 0.718E+00)
 search vector abs. value=  0.108E+00
 bond charge predicted
       N       E                     dE             d eps       ncg     rms          rms(c)
DAV:   1    -0.654570851566E+02   -0.38063E-02   -0.70005E+00   384   0.159E+01    0.478E-01
DAV:   2    -0.654640498669E+02   -0.69647E-02   -0.12449E-01   432   0.219E+00    0.318E-01
DAV:   3    -0.654624348722E+02    0.16150E-02   -0.99324E-03   440   0.629E-01    0.193E-01
DAV:   4    -0.654621627305E+02    0.27214E-03   -0.30172E-03   424   0.338E-01    0.694E-02
DAV:   5    -0.654621946715E+02   -0.31941E-04   -0.53969E-04   440   0.137E-01
  10 F= -.65462195E+02 E0= -.65420241E+02  d E =-.886630E-02
 trial-energy change:   -0.008866  1 .order   -0.009551   -0.033384    0.014283
 step:   0.4893(harm=  0.5028)  dis= 0.02307  next Energy=   -65.464490 (dE=-0.112E-01)
 bond charge predicted
       N       E                     dE             d eps       ncg     rms          rms(c)
DAV:   1    -0.654637960204E+02   -0.16333E-02   -0.71046E-01   384   0.506E+00    0.145E-01
DAV:   2    -0.654645913101E+02   -0.79529E-03   -0.13415E-02   416   0.707E-01    0.998E-02
DAV:   3    -0.654644391912E+02    0.15212E-03   -0.89354E-04   416   0.204E-01    0.625E-02
DAV:   4    -0.654644247200E+02    0.14471E-04   -0.31123E-04   352   0.121E-01
  11 F= -.65464425E+02 E0= -.65422045E+02  d E =-.110963E-01
 curvature:  -0.58 expect dE=-0.117E-01 dE for cont linesearch -0.114E-04
 trial: gam= 0.43386 g(F)=  0.144E-01 g(S)=  0.582E-02 ort = 0.146E-02 (trialstep = 0.672E+00)
 search vector abs. value=  0.418E-01
 bond charge predicted
       N       E                     dE             d eps       ncg     rms          rms(c)
DAV:   1    -0.654788275806E+02   -0.14388E-01   -0.20780E+00   384   0.904E+00    0.513E-01
DAV:   2    -0.654799116712E+02   -0.10841E-02   -0.96570E-02   400   0.159E+00    0.466E-01
DAV:   3    -0.654715874614E+02    0.83242E-02   -0.17808E-02   424   0.689E-01    0.198E-01
DAV:   4    -0.654708675384E+02    0.71992E-03   -0.57959E-03   416   0.534E-01    0.526E-02
DAV:   5    -0.654708229127E+02    0.44626E-04   -0.59366E-04   488   0.182E-01
  12 F= -.65470823E+02 E0= -.65428142E+02  d E =-.639819E-02
 trial-energy change:   -0.006398  1 .order   -0.006357   -0.013987    0.001273
 step:   0.6161(harm=  0.6161)  dis= 0.01540  next Energy=   -65.470835 (dE=-0.641E-02)
 bond charge predicted
       N       E                     dE             d eps       ncg     rms          rms(c)
DAV:   1    -0.654708837304E+02   -0.16192E-04   -0.14432E-02   408   0.756E-01    0.440E-02
DAV:   2    -0.654709177422E+02   -0.34012E-04   -0.43511E-04   344   0.127E-01
  13 F= -.65470918E+02 E0= -.65428201E+02  d E =-.649302E-02
 curvature:  -0.62 expect dE=-0.136E-01 dE for cont linesearch -0.560E-04
 trial: gam= 1.06491 g(F)=  0.156E-01 g(S)=  0.649E-02 ort = 0.194E-02 (trialstep = 0.375E+00)
 search vector abs. value=  0.736E-01
 bond charge predicted
       N       E                     dE             d eps       ncg     rms          rms(c)
DAV:   1    -0.654861274448E+02   -0.15244E-01   -0.97947E-01   384   0.598E+00    0.440E-01
DAV:   2    -0.654840429244E+02    0.20845E-02   -0.55194E-02   384   0.110E+00    0.408E-01
DAV:   3    -0.654778337579E+02    0.62092E-02   -0.12645E-02   400   0.561E-01    0.163E-01
DAV:   4    -0.654771063776E+02    0.72738E-03   -0.27597E-03   440   0.346E-01    0.488E-02
DAV:   5    -0.654770710621E+02    0.35316E-04   -0.19018E-04   304   0.975E-02
  14 F= -.65477071E+02 E0= -.65434625E+02  d E =-.615332E-02
 trial-energy change:   -0.006153  1 .order   -0.006735   -0.009057   -0.004412
 step:   0.7315(harm=  0.7315)  dis= 0.02230  next Energy=   -65.479748 (dE=-0.883E-02)
 bond charge predicted
       N       E                     dE             d eps       ncg     rms          rms(c)
DAV:   1    -0.654878591295E+02   -0.10753E-01   -0.88564E-01   384   0.568E+00    0.430E-01
DAV:   2    -0.654857837739E+02    0.20754E-02   -0.47813E-02   384   0.105E+00    0.397E-01
DAV:   3    -0.654799477019E+02    0.58361E-02   -0.11040E-02   384   0.541E-01    0.160E-01
DAV:   4    -0.654792260020E+02    0.72170E-03   -0.27770E-03   448   0.346E-01    0.479E-02
DAV:   5    -0.654792101754E+02    0.15827E-04   -0.18383E-04   304   0.973E-02
  15 F= -.65479210E+02 E0= -.65436879E+02  d E =-.829243E-02
 curvature:  -1.11 expect dE=-0.411E-01 dE for cont linesearch -0.310E-04
 trial: gam= 1.64490 g(F)=  0.313E-01 g(S)=  0.558E-02 ort = 0.143E-02 (trialstep = 0.136E+00)
 search vector abs. value=  0.241E+00
 bond charge predicted
       N       E                     dE             d eps       ncg     rms          rms(c)
DAV:   1    -0.654886148299E+02   -0.93888E-02   -0.41826E-01   384   0.394E+00    0.316E-01
DAV:   2    -0.654867910988E+02    0.18237E-02   -0.16179E-02   384   0.708E-01    0.271E-01
DAV:   3    -0.654842401938E+02    0.25509E-02   -0.35127E-03   384   0.345E-01    0.123E-01
DAV:   4    -0.654837326196E+02    0.50757E-03   -0.14550E-03   432   0.242E-01    0.353E-02
DAV:   5    -0.654837455801E+02   -0.12960E-04   -0.10230E-04   296   0.677E-02
  16 F= -.65483746E+02 E0= -.65441654E+02  d E =-.453540E-02
 ZBRENT: can't locate minimum, use default step
 trial-energy change:   -0.004535  1 .order   -0.004717   -0.005350   -0.004084
 step:   0.5460(harm=  0.5766)  dis= 0.02814  next Energy=   -65.490511 (dE=-0.113E-01)
 bond charge predicted
       N       E                     dE             d eps       ncg     rms          rms(c)
DAV:   1    -0.655328072904E+02   -0.49075E-01   -0.37684E+00   384   0.117E+01    0.959E-01
DAV:   2    -0.655167555374E+02    0.16052E-01   -0.20791E-01   424   0.216E+00    0.795E-01
DAV:   3    -0.654945507122E+02    0.22205E-01   -0.40654E-02   400   0.105E+00    0.368E-01
DAV:   4    -0.654900453579E+02    0.45054E-02   -0.15248E-02   424   0.770E-01    0.109E-01
DAV:   5    -0.654898724635E+02    0.17289E-03   -0.12219E-03   448   0.229E-01    0.470E-02
DAV:   6    -0.654899259173E+02   -0.53454E-04   -0.19296E-04   400   0.825E-02
  17 F= -.65489926E+02 E0= -.65448529E+02  d E =-.107157E-01
 curvature:  -1.76 expect dE=-0.431E-01 dE for cont linesearch -0.192E-03
 trial: gam= 0.58989 g(F)=  0.189E-01 g(S)=  0.559E-02 ort = 0.513E-02 (trialstep = 0.218E+00)
 search vector abs. value=  0.114E+00
 bond charge predicted
       N       E                     dE             d eps       ncg     rms          rms(c)
DAV:   1    -0.655046802935E+02   -0.14808E-01   -0.49493E-01   448   0.451E+00    0.439E-01
DAV:   2    -0.655014572065E+02    0.32231E-02   -0.33492E-02   392   0.790E-01    0.380E-01
DAV:   3    -0.654959731985E+02    0.54840E-02   -0.99276E-03   408   0.490E-01    0.149E-01
DAV:   4    -0.654952986269E+02    0.67457E-03   -0.23378E-03   440   0.293E-01    0.410E-02
DAV:   5    -0.654953158477E+02   -0.17221E-04   -0.14568E-04   312   0.857E-02
  18 F= -.65495316E+02 E0= -.65453566E+02  d E =-.538993E-02
 ZBRENT: can't locate minimum, use default step
 trial-energy change:   -0.005390  1 .order   -0.005438   -0.006000   -0.004875
 step:   0.8736(harm=  1.1644)  dis= 0.02690  next Energy=   -65.505922 (dE=-0.160E-01)
 bond charge predicted
       N       E                     dE             d eps       ncg     rms          rms(c)
DAV:   1    -0.655892471937E+02   -0.93949E-01   -0.44402E+00   448   0.134E+01    0.134E+00
DAV:   2    -0.655603736566E+02    0.28874E-01   -0.43670E-01   432   0.238E+00    0.108E+00
DAV:   3    -0.655111542339E+02    0.49219E-01   -0.72012E-02   416   0.148E+00    0.451E-01
DAV:   4    -0.655051570627E+02    0.59972E-02   -0.23631E-02   440   0.927E-01    0.150E-01
DAV:   5    -0.655046265468E+02    0.53052E-03   -0.22440E-03   480   0.324E-01    0.667E-02
DAV:   6    -0.655047009751E+02   -0.74428E-04   -0.53479E-04   416   0.129E-01
  19 F= -.65504701E+02 E0= -.65461720E+02  d E =-.147751E-01
 curvature:  -2.19 expect dE=-0.767E-01 dE for cont linesearch -0.245E-02
 ZBRENT: increasing intervall
 opt :   2.1840  next Energy=   -65.505084 (dE=-0.152E-01)
 bond charge predicted
       N       E                     dE             d eps       ncg     rms          rms(c)
DAV:   1    -0.658464889109E+02   -0.34186E+00   -0.17886E+01   448   0.266E+01    0.279E+00
DAV:   2    -0.656981959850E+02    0.14829E+00   -0.24516E+00   432   0.478E+00    0.183E+00
DAV:   3    -0.655281715156E+02    0.17002E+00   -0.22202E-01   440   0.292E+00    0.939E-01
DAV:   4    -0.655106508829E+02    0.17521E-01   -0.15021E-01   464   0.167E+00    0.542E-01
DAV:   5    -0.654976729577E+02    0.12978E-01   -0.39436E-02   416   0.802E-01    0.173E-01
DAV:   6    -0.654974032166E+02    0.26974E-03   -0.68587E-03   440   0.349E-01    0.733E-02
DAV:   7    -0.654976710490E+02   -0.26783E-03   -0.24652E-04   304   0.113E-01    0.546E-02
DAV:   8    -0.654980671616E+02   -0.39611E-03   -0.37444E-04   344   0.830E-02    0.236E-02
DAV:   9    -0.654984635285E+02   -0.39637E-03   -0.24025E-04   344   0.693E-02    0.201E-02
DAV:  10    -0.654986956312E+02   -0.23210E-03   -0.97525E-05   296   0.384E-02    0.809E-03
DAV:  11    -0.654988516277E+02   -0.15600E-03   -0.72074E-05   288   0.298E-02    0.422E-03
DAV:  12    -0.654988770672E+02   -0.25440E-04   -0.71927E-06   320   0.139E-02
  20 F= -.65498877E+02 E0= -.65453351E+02  d E =-.895115E-02
 curvature:  -0.34 expect dE=-0.835E-01 dE for cont linesearch -0.103E-02
 trial: gam= 0.00000 g(F)=  0.234E+00 g(S)=  0.101E-01 ort =-0.185E-01 (trialstep = 0.286E+00)
 search vector abs. value=  0.244E+00
 bond charge predicted
       N       E                     dE             d eps       ncg     rms          rms(c)
DAV:   1    -0.655322641973E+02   -0.33413E-01   -0.26116E+00   384   0.103E+01    0.605E-01
DAV:   2    -0.655255288071E+02    0.67354E-02   -0.87067E-02   472   0.178E+00    0.334E-01
DAV:   3    -0.655233251845E+02    0.22036E-02   -0.11849E-02   424   0.639E-01    0.218E-01
DAV:   4    -0.655225691436E+02    0.75604E-03   -0.36259E-03   408   0.329E-01    0.106E-01
DAV:   5    -0.655224995142E+02    0.69629E-04   -0.77488E-04   528   0.150E-01
  21 F= -.65522500E+02 E0= -.65480345E+02  d E =-.236224E-01
 trial-energy change:   -0.023622  1 .order   -0.024708   -0.069850    0.020434
 step:   0.2178(harm=  0.2216)  dis= 0.01189  next Energy=   -65.524961 (dE=-0.261E-01)
 bond charge predicted
       N       E                     dE             d eps       ncg     rms          rms(c)
DAV:   1    -0.655255886985E+02   -0.30196E-02   -0.15221E-01   384   0.247E+00    0.145E-01
DAV:   2    -0.655252129120E+02    0.37579E-03   -0.51671E-03   480   0.437E-01    0.769E-02
DAV:   3    -0.655251193857E+02    0.93526E-04   -0.66217E-04   416   0.154E-01
  22 F= -.65525119E+02 E0= -.65482069E+02  d E =-.262423E-01
 curvature:  -0.11 expect dE=-0.193E-02 dE for cont linesearch -0.103E-04
 trial: gam= 0.09136 g(F)=  0.149E-01 g(S)=  0.256E-02 ort =-0.478E-02 (trialstep = 0.273E+00)
 search vector abs. value=  0.187E-01
 bond charge predicted
       N       E                     dE             d eps       ncg     rms          rms(c)
DAV:   1    -0.655281441727E+02   -0.29313E-02   -0.10497E-01   384   0.208E+00    0.120E-01
DAV:   2    -0.655280006335E+02    0.14354E-03   -0.24631E-03   432   0.318E-01    0.680E-02
DAV:   3    -0.655278890589E+02    0.11157E-03   -0.44393E-04   408   0.120E-01    0.275E-02
DAV:   4    -0.655278784991E+02    0.10560E-04   -0.85881E-05   272   0.552E-02
  23 F= -.65527878E+02 E0= -.65485600E+02  d E =-.275911E-02
 trial-energy change:   -0.002759  1 .order   -0.002835   -0.004654   -0.001015
 step:   0.3488(harm=  0.3488)  dis= 0.00301  next Energy=   -65.528095 (dE=-0.298E-02)
 bond charge predicted
       N       E                     dE             d eps       ncg     rms          rms(c)
DAV:   1    -0.655280318526E+02   -0.14279E-03   -0.82653E-03   392   0.585E-01    0.368E-02
DAV:   2    -0.655280187266E+02    0.13126E-04   -0.19445E-04   400   0.916E-02
  24 F= -.65528019E+02 E0= -.65486043E+02  d E =-.289934E-02
 curvature:  -0.19 expect dE=-0.134E-02 dE for cont linesearch -0.174E-05
 trial: gam= 0.36181 g(F)=  0.506E-02 g(S)=  0.197E-02 ort = 0.413E-03 (trialstep = 0.288E+00)
 search vector abs. value=  0.978E-02
 bond charge predicted
       N       E                     dE             d eps       ncg     rms          rms(c)
DAV:   1    -0.655304497799E+02   -0.24179E-02   -0.60842E-02   384   0.174E+00    0.136E-01
DAV:   2    -0.655302465076E+02    0.20327E-03   -0.27560E-03   416   0.291E-01    0.121E-01
DAV:   3    -0.655297208137E+02    0.52569E-03   -0.70003E-04   336   0.156E-01    0.488E-02
DAV:   4    -0.655296651744E+02    0.55639E-04   -0.25324E-04   328   0.998E-02
  25 F= -.65529665E+02 E0= -.65487530E+02  d E =-.164645E-02
 trial-energy change:   -0.001646  1 .order   -0.001735   -0.002068   -0.001402
 step:   0.8936(harm=  0.8936)  dis= 0.00841  next Energy=   -65.531228 (dE=-0.321E-02)
 bond charge predicted
       N       E                     dE             d eps       ncg     rms          rms(c)
DAV:   1    -0.655349949065E+02   -0.52741E-02   -0.27326E-01   384   0.368E+00    0.288E-01
DAV:   2    -0.655342528064E+02    0.74210E-03   -0.17496E-02   400   0.628E-01    0.259E-01
DAV:   3    -0.655316912047E+02    0.25616E-02   -0.48365E-03   400   0.340E-01    0.101E-01
DAV:   4    -0.655314884862E+02    0.20272E-03   -0.11638E-03   440   0.215E-01    0.247E-02
DAV:   5    -0.655314885233E+02   -0.37024E-07   -0.82553E-05   344   0.705E-02
  26 F= -.65531489E+02 E0= -.65489193E+02  d E =-.346980E-02
 curvature:  -0.61 expect dE=-0.289E-02 dE for cont linesearch -0.874E-04
 trial: gam= 0.59954 g(F)=  0.296E-02 g(S)=  0.180E-02 ort = 0.119E-02 (trialstep = 0.409E+00)
 search vector abs. value=  0.969E-02
 bond charge predicted
       N       E                     dE             d eps       ncg     rms          rms(c)
DAV:   1    -0.655346914366E+02   -0.32030E-02   -0.14708E-01   448   0.271E+00    0.183E-01
DAV:   2    -0.655336617513E+02    0.10297E-02   -0.43822E-03   400   0.356E-01    0.128E-01
DAV:   3    -0.655332156497E+02    0.44610E-03   -0.88763E-04   352   0.170E-01    0.697E-02
DAV:   4    -0.655330821167E+02    0.13353E-03   -0.29600E-04   392   0.108E-01    0.297E-02
DAV:   5    -0.655330757373E+02    0.63794E-05   -0.85474E-05   312   0.541E-02
  27 F= -.65533076E+02 E0= -.65490925E+02  d E =-.158721E-02
 trial-energy change:   -0.001587  1 .order   -0.001628   -0.002234   -0.001022
 step:   0.7539(harm=  0.7539)  dis= 0.00640  next Energy=   -65.533548 (dE=-0.206E-02)
 bond charge predicted
       N       E                     dE             d eps       ncg     rms          rms(c)
DAV:   1    -0.655346418409E+02   -0.15597E-02   -0.10511E-01   448   0.229E+00    0.155E-01
DAV:   2    -0.655339101168E+02    0.73172E-03   -0.31308E-03   400   0.305E-01    0.109E-01
DAV:   3    -0.655335913176E+02    0.31880E-03   -0.63508E-04   320   0.144E-01    0.593E-02
DAV:   4    -0.655334965197E+02    0.94798E-04   -0.20959E-04   336   0.930E-02
  28 F= -.65533497E+02 E0= -.65491405E+02  d E =-.200800E-02
 curvature:  -0.67 expect dE=-0.288E-02 dE for cont linesearch -0.102E-04
 trial: gam= 1.12202 g(F)=  0.315E-02 g(S)=  0.117E-02 ort = 0.385E-03 (trialstep = 0.267E+00)
 search vector abs. value=  0.174E-01
 bond charge predicted
       N       E                     dE             d eps       ncg     rms          rms(c)
DAV:   1    -0.655363173347E+02   -0.27260E-02   -0.96954E-02   448   0.223E+00    0.198E-01
DAV:   2    -0.655354933799E+02    0.82395E-03   -0.48154E-03   400   0.351E-01    0.162E-01
DAV:   3    -0.655345676921E+02    0.92569E-03   -0.13200E-03   384   0.207E-01    0.695E-02
DAV:   4    -0.655344360481E+02    0.13164E-03   -0.38856E-04   392   0.124E-01    0.214E-02
DAV:   5    -0.655344396402E+02   -0.35921E-05   -0.35491E-05   312   0.372E-02
  29 F= -.65534440E+02 E0= -.65492125E+02  d E =-.943121E-03
 trial-energy change:   -0.000943  1 .order   -0.001038   -0.001264   -0.000813
 step:   0.7461(harm=  0.7461)  dis= 0.00726  next Energy=   -65.535266 (dE=-0.177E-02)
 bond charge predicted
       N       E                     dE             d eps       ncg     rms          rms(c)
DAV:   1    -0.655413711816E+02   -0.69351E-02   -0.32065E-01   448   0.404E+00    0.359E-01
DAV:   2    -0.655388650485E+02    0.25061E-02   -0.25169E-02   400   0.649E-01    0.294E-01
DAV:   3    -0.655357410569E+02    0.31240E-02   -0.66968E-03   416   0.380E-01    0.124E-01
DAV:   4    -0.655353124962E+02    0.42856E-03   -0.12564E-03   424   0.222E-01    0.369E-02
DAV:   5    -0.655352937356E+02    0.18761E-04   -0.98186E-05   304   0.631E-02
  30 F= -.65535294E+02 E0= -.65492544E+02  d E =-.179722E-02
 curvature:  -1.37 expect dE=-0.521E-02 dE for cont linesearch -0.600E-04
 trial: gam= 0.47816 g(F)=  0.304E-02 g(S)=  0.775E-03 ort = 0.873E-03 (trialstep = 0.362E+00)
 search vector abs. value=  0.862E-02
 bond charge predicted
       N       E                     dE             d eps       ncg     rms          rms(c)
DAV:   1    -0.655382955284E+02   -0.29830E-02   -0.10027E-01   448   0.220E+00    0.193E-01
DAV:   2    -0.655377764534E+02    0.51907E-03   -0.80916E-03   384   0.392E-01    0.181E-01
DAV:   3    -0.655365159234E+02    0.12605E-02   -0.22952E-03   384   0.235E-01    0.666E-02
DAV:   4    -0.655364099756E+02    0.10595E-03   -0.52966E-04   440   0.142E-01    0.193E-02
DAV:   5    -0.655364228100E+02   -0.12834E-04   -0.30034E-05   312   0.408E-02
  31 F= -.65536423E+02 E0= -.65493458E+02  d E =-.112907E-02
 trial-energy change:   -0.001129  1 .order   -0.001109   -0.001533   -0.000686
 step:   0.6564(harm=  0.6564)  dis= 0.00337  next Energy=   -65.536681 (dE=-0.139E-02)
 bond charge predicted
       N       E                     dE             d eps       ncg     rms          rms(c)
DAV:   1    -0.655379277169E+02   -0.15177E-02   -0.66082E-02   448   0.179E+00    0.156E-01
DAV:   2    -0.655375701851E+02    0.35753E-03   -0.47972E-03   384   0.316E-01    0.146E-01
DAV:   3    -0.655367611046E+02    0.80908E-03   -0.13136E-03   384   0.190E-01    0.539E-02
DAV:   4    -0.655366953692E+02    0.65735E-04   -0.33292E-04   408   0.113E-01
  32 F= -.65536695E+02 E0= -.65493509E+02  d E =-.140163E-02
 curvature:  -0.67 expect dE=-0.410E-02 dE for cont linesearch -0.206E-06
 trial: gam= 1.80303 g(F)=  0.536E-02 g(S)=  0.777E-03 ort =-0.515E-04 (trialstep = 0.107E+00)
 search vector abs. value=  0.340E-01
 bond charge predicted
       N       E                     dE             d eps       ncg     rms          rms(c)
DAV:   1    -0.655379122249E+02   -0.11511E-02   -0.31143E-02   416   0.115E+00    0.111E-01
DAV:   2    -0.655376581234E+02    0.25410E-03   -0.19314E-03   384   0.212E-01    0.974E-02
DAV:   3    -0.655373227498E+02    0.33537E-03   -0.45614E-04   288   0.120E-01    0.414E-02
DAV:   4    -0.655372702757E+02    0.52474E-04   -0.17743E-04   328   0.812E-02
  33 F= -.65537270E+02 E0= -.65494116E+02  d E =-.574906E-03
 ZBRENT: can't locate minimum, use default step
 trial-energy change:   -0.000575  1 .order   -0.000604   -0.000646   -0.000563
 step:   0.4275(harm=  0.8336)  dis= 0.00528  next Energy=   -65.539214 (dE=-0.252E-02)
 bond charge predicted
       N       E                     dE             d eps       ncg     rms          rms(c)
DAV:   1    -0.655440308474E+02   -0.67081E-02   -0.28071E-01   416   0.344E+00    0.332E-01
DAV:   2    -0.655419940595E+02    0.20368E-02   -0.26195E-02   384   0.638E-01    0.288E-01
DAV:   3    -0.655389305650E+02    0.30635E-02   -0.61394E-03   400   0.359E-01    0.121E-01
DAV:   4    -0.655384286894E+02    0.50188E-03   -0.15319E-03   416   0.238E-01    0.313E-02
DAV:   5    -0.655384260632E+02    0.26263E-05   -0.78718E-05   312   0.651E-02
  34 F= -.65538426E+02 E0= -.65495357E+02  d E =-.173069E-02
 curvature:  -1.61 expect dE=-0.934E-02 dE for cont linesearch -0.464E-03
 trial: gam= 0.23389 g(F)=  0.543E-02 g(S)=  0.363E-03 ort = 0.313E-02 (trialstep = 0.171E+00)
 search vector abs. value=  0.912E-02
 bond charge predicted
       N       E                     dE             d eps       ncg     rms          rms(c)
DAV:   1    -0.655395465531E+02   -0.11179E-02   -0.27862E-02   416   0.115E+00    0.667E-02
DAV:   2    -0.655394211282E+02    0.12542E-03   -0.81300E-04   400   0.162E-01    0.421E-02
DAV:   3    -0.655393882160E+02    0.32912E-04   -0.99331E-05   288   0.579E-02
  35 F= -.65539388E+02 E0= -.65496359E+02  d E =-.962153E-03
 trial-energy change:   -0.000962  1 .order   -0.000970   -0.001116   -0.000823
 step:   0.6509(harm=  0.6509)  dis= 0.00507  next Energy=   -65.540551 (dE=-0.212E-02)
 bond charge predicted
       N       E                     dE             d eps       ncg     rms          rms(c)
DAV:   1    -0.655413213536E+02   -0.19002E-02   -0.21882E-01   384   0.321E+00    0.196E-01
DAV:   2    -0.655402863555E+02    0.10350E-02   -0.65780E-03   384   0.479E-01    0.123E-01
DAV:   3    -0.655399556618E+02    0.33069E-03   -0.88631E-04   384   0.170E-01    0.781E-02
DAV:   4    -0.655397883622E+02    0.16730E-03   -0.38396E-04   368   0.124E-01    0.352E-02
DAV:   5    -0.655397772779E+02    0.11084E-04   -0.98642E-05   312   0.611E-02
  36 F= -.65539777E+02 E0= -.65497214E+02  d E =-.135121E-02
 curvature:  -0.45 expect dE=-0.384E-02 dE for cont linesearch -0.243E-03
 trial: gam= 0.00000 g(F)=  0.779E-02 g(S)=  0.660E-03 ort =-0.221E-02 (trialstep = 0.267E+00)
 search vector abs. value=  0.845E-02
 bond charge predicted
       N       E                     dE             d eps       ncg     rms          rms(c)
DAV:   1    -0.655410393831E+02   -0.12510E-02   -0.77490E-02   384   0.194E+00    0.978E-02
DAV:   2    -0.655411128927E+02   -0.73510E-04   -0.28776E-03   384   0.312E-01    0.860E-02
DAV:   3    -0.655408590219E+02    0.25387E-03   -0.49823E-04   352   0.131E-01    0.388E-02
DAV:   4    -0.655408621504E+02   -0.31285E-05   -0.16156E-04   320   0.847E-02
  37 F= -.65540862E+02 E0= -.65497910E+02  d E =-.108487E-02
 trial-energy change:   -0.001085  1 .order   -0.001004   -0.002256    0.000249
 step:   0.2405(harm=  0.2405)  dis= 0.00141  next Energy=   -65.540793 (dE=-0.102E-02)
 bond charge predicted
       N       E                     dE             d eps       ncg     rms          rms(c)
DAV:   1    -0.655408881577E+02   -0.29136E-04   -0.76780E-04   448   0.193E-01    0.115E-02
DAV:   2    -0.655408985371E+02   -0.10379E-04   -0.36057E-05   280   0.356E-02
  38 F= -.65540899E+02 E0= -.65497985E+02  d E =-.112126E-02
 curvature:  -0.12 expect dE=-0.189E-03 dE for cont linesearch -0.704E-06
 trial: gam= 0.15966 g(F)=  0.125E-02 g(S)=  0.321E-03 ort = 0.222E-03 (trialstep = 0.262E+00)
 search vector abs. value=  0.186E-02
 reached required accuracy - stopping structural energy minimisation
 writing wavefunctions
Sun Mar  6 20:31:25 CST 2022
