Sun Mar  6 20:18:36 CST 2022
 running on   48 total cores
 distrk:  each k-point on   48 cores,    1 groups
 distr:  one band on   24 cores,    2 groups
 using from now: INCAR     
 vasp.5.3.5 31Mar14 (build Jan 11 2016 19:50:55) complex                        
  
 POSCAR found type information on POSCAR  B  C  Na
 POSCAR found :  3 types and       9 ions
 scaLAPACK will be used

 ----------------------------------------------------------------------------- 
|                                                                             |
|           W    W    AA    RRRRR   N    N  II  N    N   GGGG   !!!           |
|           W    W   A  A   R    R  NN   N  II  NN   N  G    G  !!!           |
|           W    W  A    A  R    R  N N  N  II  N N  N  G       !!!           |
|           W WW W  AAAAAA  RRRRR   N  N N  II  N  N N  G  GGG   !            |
|           WW  WW  A    A  R   R   N   NN  II  N   NN  G    G                |
|           W    W  A    A  R    R  N    N  II  N    N   GGGG   !!!           |
|                                                                             |
|      For optimal performance we recommend to set                            |
|        NCORE= 4 - approx SQRT( number of cores)                             |
|      NCORE specifies how many cores store one orbital (NPAR=cpu/NCORE).     |
|      This setting can  greatly improve the performance of VASP for DFT.     |
|      The default, NPAR=number of cores might be grossly inefficient         |
|      on modern multi-core architectures or massively parallel machines.     |
|      Do your own testing !!!!                                               |
|      Unfortunately you need to use the default for GW and RPA calculations. |
|      (for HF NCORE is supported but not extensively tested yet)             |
|                                                                             |
 ----------------------------------------------------------------------------- 

 LDA part: xc-table for Pade appr. of Perdew
 POSCAR, INCAR and KPOINTS ok, starting setup
 WARNING: small aliasing (wrap around) errors must be expected
 FFT: planning ...
 WAVECAR not read
 entering main loop
       N       E                     dE             d eps       ncg     rms          rms(c)
DAV:   1     0.271574042724E+03    0.27157E+03   -0.11435E+04   472   0.830E+02
DAV:   2    -0.714295561131E+01   -0.27872E+03   -0.26661E+03   576   0.227E+02
DAV:   3    -0.725304265884E+02   -0.65387E+02   -0.64585E+02   440   0.110E+02
DAV:   4    -0.760344269364E+02   -0.35040E+01   -0.34832E+01   528   0.341E+01
DAV:   5    -0.761187905551E+02   -0.84364E-01   -0.83943E-01   464   0.504E+00    0.143E+01
DAV:   6    -0.680972163013E+02    0.80216E+01   -0.11523E+01   456   0.153E+01    0.767E+00
DAV:   7    -0.654956527306E+02    0.26016E+01   -0.67734E+00   448   0.114E+01    0.294E+00
DAV:   8    -0.651577762639E+02    0.33788E+00   -0.57366E-01   544   0.365E+00    0.698E-01
DAV:   9    -0.650641476492E+02    0.93629E-01   -0.88643E-02   456   0.124E+00    0.398E-01
DAV:  10    -0.650141568530E+02    0.49991E-01   -0.54304E-02   528   0.985E-01    0.201E-01
DAV:  11    -0.650119492125E+02    0.22076E-02   -0.97880E-03   472   0.478E-01    0.137E-01
DAV:  12    -0.650163463336E+02   -0.43971E-02   -0.32683E-03   504   0.292E-01    0.771E-02
DAV:  13    -0.650186234172E+02   -0.22771E-02   -0.28942E-03   480   0.170E-01    0.602E-02
DAV:  14    -0.650238816733E+02   -0.52583E-02   -0.27949E-03   408   0.184E-01    0.487E-02
DAV:  15    -0.650254708280E+02   -0.15892E-02   -0.70103E-04   400   0.848E-02    0.222E-02
DAV:  16    -0.650276109167E+02   -0.21401E-02   -0.83088E-04   336   0.679E-02    0.124E-02
DAV:  17    -0.650281780043E+02   -0.56709E-03   -0.16223E-04   352   0.366E-02    0.136E-02
DAV:  18    -0.650285395781E+02   -0.36157E-03   -0.13371E-04   344   0.301E-02    0.653E-03
DAV:  19    -0.650286224944E+02   -0.82916E-04   -0.33696E-05   352   0.219E-02
   1 F= -.65028622E+02 E0= -.65013459E+02  d E =-.650286E+02
 curvature:   0.00 expect dE= 0.000E+00 dE for cont linesearch  0.000E+00
 trial: gam= 0.00000 g(F)=  0.402E+00 g(S)=  0.668E-01 ort = 0.000E+00 (trialstep = 0.100E+01)
 search vector abs. value=  0.469E+00
 bond charge predicted
       N       E                     dE             d eps       ncg     rms          rms(c)
DAV:   1    -0.649140947897E+02    0.11444E+00   -0.42600E+01   400   0.431E+01    0.217E+00
DAV:   2    -0.649190197274E+02   -0.49249E-02   -0.12395E+00   480   0.758E+00    0.133E+00
DAV:   3    -0.648757346998E+02    0.43285E-01   -0.14634E-01   456   0.268E+00    0.469E-01
DAV:   4    -0.648733799469E+02    0.23548E-02   -0.26354E-02   488   0.962E-01    0.175E-01
DAV:   5    -0.648734253490E+02   -0.45402E-04   -0.28973E-03   496   0.306E-01    0.743E-02
DAV:   6    -0.648736562612E+02   -0.23091E-03   -0.47750E-04   472   0.137E-01    0.286E-02
DAV:   7    -0.648738964566E+02   -0.24020E-03   -0.10601E-04   320   0.577E-02    0.115E-02
DAV:   8    -0.648741279624E+02   -0.23151E-03   -0.67294E-05   296   0.413E-02    0.795E-03
DAV:   9    -0.648744567991E+02   -0.32884E-03   -0.11038E-04   320   0.419E-02    0.436E-03
DAV:  10    -0.648745475973E+02   -0.90798E-04   -0.19804E-05   304   0.209E-02
   2 F= -.64874548E+02 E0= -.64874254E+02  d E =0.154075E+00
 trial-energy change:    0.154075  1 .order    0.160783   -0.468933    0.790499
 step:   0.3799(harm=  0.3723)  dis= 0.03043  next Energy=   -65.118056 (dE=-0.894E-01)
 bond charge predicted
       N       E                     dE             d eps       ncg     rms          rms(c)
DAV:   1    -0.651282476159E+02   -0.25379E+00   -0.16525E+01   384   0.272E+01    0.133E+00
DAV:   2    -0.651343757989E+02   -0.61282E-02   -0.52443E-01   512   0.463E+00    0.823E-01
DAV:   3    -0.651176493569E+02    0.16726E-01   -0.58324E-02   448   0.157E+00    0.318E-01
DAV:   4    -0.651164235310E+02    0.12258E-02   -0.11231E-02   480   0.657E-01    0.110E-01
DAV:   5    -0.651163702864E+02    0.53245E-04   -0.11178E-03   464   0.192E-01    0.442E-02
DAV:   6    -0.651163646850E+02    0.56015E-05   -0.12003E-04   368   0.731E-02
   3 F= -.65116365E+02 E0= -.65109385E+02  d E =-.877422E-01
 curvature:  -0.19 expect dE=-0.101E+00 dE for cont linesearch -0.151E-06
 trial: gam= 1.15022 g(F)=  0.480E+00 g(S)=  0.600E-01 ort = 0.617E-03 (trialstep = 0.354E+00)
 search vector abs. value=  0.116E+01
 bond charge predicted
       N       E                     dE             d eps       ncg     rms          rms(c)
DAV:   1    -0.652377315473E+02   -0.12136E+00   -0.13725E+01   384   0.245E+01    0.143E+00
DAV:   2    -0.651920054938E+02    0.45726E-01   -0.47613E-01   464   0.440E+00    0.770E-01
DAV:   3    -0.651811377295E+02    0.10868E-01   -0.66045E-02   472   0.154E+00    0.350E-01
DAV:   4    -0.651800292698E+02    0.11085E-02   -0.73222E-03   528   0.552E-01    0.174E-01
DAV:   5    -0.651799668958E+02    0.62374E-04   -0.94018E-04   448   0.195E-01
   4 F= -.65179967E+02 E0= -.65178071E+02  d E =-.636022E-01
 trial-energy change:   -0.063602  1 .order   -0.066866   -0.191172    0.057440
 step:   0.2667(harm=  0.2719)  dis= 0.02543  next Energy=   -65.187070 (dE=-0.707E-01)
 bond charge predicted
       N       E                     dE             d eps       ncg     rms          rms(c)
DAV:   1    -0.651901995307E+02   -0.10170E-01   -0.83696E-01   432   0.606E+00    0.336E-01
DAV:   2    -0.651882170895E+02    0.19824E-02   -0.24990E-02   456   0.102E+00    0.188E-01
DAV:   3    -0.651875449654E+02    0.67212E-03   -0.60738E-03   456   0.408E-01    0.725E-02
DAV:   4    -0.651875055719E+02    0.39394E-04   -0.56629E-04   488   0.153E-01
   5 F= -.65187506E+02 E0= -.65184523E+02  d E =-.711409E-01
 curvature:  -0.29 expect dE=-0.116E+00 dE for cont linesearch -0.723E-08
 trial: gam= 0.70893 g(F)=  0.338E+00 g(S)=  0.595E-01 ort =-0.170E-03 (trialstep = 0.336E+00)
 search vector abs. value=  0.981E+00
 bond charge predicted
       N       E                     dE             d eps       ncg     rms          rms(c)
DAV:   1    -0.653358912023E+02   -0.14835E+00   -0.12438E+01   384   0.215E+01    0.121E+00
DAV:   2    -0.653084593004E+02    0.27432E-01   -0.33686E-01   448   0.372E+00    0.667E-01
DAV:   3    -0.652954801289E+02    0.12979E-01   -0.53515E-02   464   0.148E+00    0.187E-01
DAV:   4    -0.652949672329E+02    0.51290E-03   -0.33710E-03   416   0.388E-01    0.822E-02
DAV:   5    -0.652950209087E+02   -0.53676E-04   -0.66450E-04   448   0.156E-01
   6 F= -.65295021E+02 E0= -.65294348E+02  d E =-.107515E+00
 ZBRENT: can't locate minimum, use default step
 trial-energy change:   -0.107515  1 .order   -0.108472   -0.133522   -0.083423
 step:   1.3448(harm=  0.8960)  dis= 0.07643  next Energy=   -65.397568 (dE=-0.210E+00)
 bond charge predicted
       N       E                     dE             d eps       ncg     rms          rms(c)
DAV:   1    -0.656998332817E+02   -0.40487E+00   -0.11527E+02   384   0.690E+01    0.409E+00
DAV:   2    -0.653996046868E+02    0.30023E+00   -0.34966E+00   456   0.118E+01    0.196E+00
DAV:   3    -0.653070399183E+02    0.92565E-01   -0.39398E-01   536   0.403E+00    0.630E-01
DAV:   4    -0.652983233864E+02    0.87165E-02   -0.23112E-02   520   0.942E-01    0.231E-01
DAV:   5    -0.652973880066E+02    0.93538E-03   -0.38497E-03   536   0.389E-01    0.821E-02
DAV:   6    -0.652978646876E+02   -0.47668E-03   -0.75831E-04   480   0.172E-01    0.422E-02
DAV:   7    -0.652984644693E+02   -0.59978E-03   -0.41407E-04   400   0.106E-01    0.300E-02
DAV:   8    -0.652992506111E+02   -0.78614E-03   -0.57956E-04   384   0.107E-01    0.176E-02
DAV:   9    -0.652997237735E+02   -0.47316E-03   -0.28058E-04   400   0.706E-02    0.114E-02
DAV:  10    -0.652999664103E+02   -0.24264E-03   -0.62946E-05   360   0.408E-02    0.564E-03
DAV:  11    -0.653000719417E+02   -0.10553E-03   -0.18785E-05   344   0.229E-02    0.369E-03
DAV:  12    -0.653001436171E+02   -0.71675E-04   -0.10639E-05   304   0.137E-02
   7 F= -.65300144E+02 E0= -.65299979E+02  d E =-.112638E+00
 curvature:  -0.40 expect dE=-0.539E+00 dE for cont linesearch -0.235E-01
 ZBRENT: interpolating
 opt :   0.8473  next Energy=   -65.360219 (dE=-0.173E+00)
 bond charge predicted
       N       E                     dE             d eps       ncg     rms          rms(c)
DAV:   1    -0.654818109375E+02   -0.18174E+00   -0.30568E+01   448   0.363E+01    0.187E+00
DAV:   2    -0.653978457238E+02    0.83965E-01   -0.43721E-01   496   0.500E+00    0.986E-01
DAV:   3    -0.653585109085E+02    0.39335E-01   -0.16610E-01   472   0.216E+00    0.246E-01
DAV:   4    -0.653569968760E+02    0.15140E-02   -0.79201E-03   488   0.599E-01    0.141E-01
DAV:   5    -0.653559023787E+02    0.10945E-02   -0.25984E-03   464   0.299E-01    0.516E-02
DAV:   6    -0.653558165904E+02    0.85788E-04   -0.27455E-04   440   0.118E-01
   8 F= -.65355817E+02 E0= -.65355576E+02  d E =-.168311E+00
 curvature:  -1.01 expect dE=-0.487E+00 dE for cont linesearch -0.767E-04
 trial: gam= 1.17459 g(F)=  0.458E+00 g(S)=  0.242E-01 ort =-0.863E-02 (trialstep = 0.237E+00)
 search vector abs. value=  0.182E+01
 bond charge predicted
       N       E                     dE             d eps       ncg     rms          rms(c)
DAV:   1    -0.654874191314E+02   -0.13152E+00   -0.12920E+01   400   0.209E+01    0.130E+00
DAV:   2    -0.654590734814E+02    0.28346E-01   -0.35705E-01   456   0.394E+00    0.746E-01
DAV:   3    -0.654426990398E+02    0.16374E-01   -0.89368E-02   416   0.181E+00    0.232E-01
DAV:   4    -0.654423276197E+02    0.37142E-03   -0.67816E-03   496   0.509E-01    0.124E-01
DAV:   5    -0.654422022725E+02    0.12535E-03   -0.88636E-04   464   0.196E-01    0.356E-02
DAV:   6    -0.654423881015E+02   -0.18583E-03   -0.15760E-04   328   0.748E-02    0.165E-02
DAV:   7    -0.654426009930E+02   -0.21289E-03   -0.66368E-05   272   0.465E-02    0.864E-03
DAV:   8    -0.654428047817E+02   -0.20379E-03   -0.47367E-05   304   0.338E-02    0.492E-03
DAV:   9    -0.654429548478E+02   -0.15007E-03   -0.48765E-05   312   0.250E-02    0.357E-03
DAV:  10    -0.654430234493E+02   -0.68602E-04   -0.16436E-05   328   0.180E-02
   9 F= -.65443023E+02 E0= -.65443001E+02  d E =-.872069E-01
 trial-energy change:   -0.087207  1 .order   -0.084499   -0.111825   -0.057172
 step:   0.4017(harm=  0.4848)  dis= 0.01967  next Energy=   -65.463816 (dE=-0.108E+00)
 bond charge predicted
       N       E                     dE             d eps       ncg     rms          rms(c)
DAV:   1    -0.654920190820E+02   -0.49064E-01   -0.62956E+00   416   0.146E+01    0.912E-01
DAV:   2    -0.654763917412E+02    0.15627E-01   -0.16861E-01   448   0.261E+00    0.513E-01
DAV:   3    -0.654678231924E+02    0.85685E-02   -0.42388E-02   432   0.121E+00    0.160E-01
DAV:   4    -0.654677263490E+02    0.96843E-04   -0.32488E-03   408   0.349E-01    0.833E-02
DAV:   5    -0.654677499983E+02   -0.23649E-04   -0.52273E-04   464   0.145E-01
  10 F= -.65467750E+02 E0= -.65467730E+02  d E =-.111933E+00
 curvature:  -0.83 expect dE=-0.734E+00 dE for cont linesearch -0.265E-02
 trial: gam= 1.67265 g(F)=  0.862E+00 g(S)=  0.252E-01 ort = 0.763E-01 (trialstep = 0.787E-01)
 search vector abs. value=  0.622E+01
 bond charge predicted
       N       E                     dE             d eps       ncg     rms          rms(c)
DAV:   1    -0.655558599168E+02   -0.88134E-01   -0.48481E+00   384   0.127E+01    0.797E-01
DAV:   2    -0.655431075879E+02    0.12752E-01   -0.12497E-01   464   0.227E+00    0.459E-01
DAV:   3    -0.655362742054E+02    0.68334E-02   -0.46297E-02   456   0.124E+00    0.148E-01
DAV:   4    -0.655361416225E+02    0.13258E-03   -0.38086E-03   464   0.401E-01    0.804E-02
DAV:   5    -0.655364274055E+02   -0.28578E-03   -0.10686E-03   472   0.187E-01    0.276E-02
DAV:   6    -0.655365939804E+02   -0.16657E-03   -0.15266E-04   336   0.810E-02    0.164E-02
DAV:   7    -0.655369549342E+02   -0.36095E-03   -0.13830E-04   304   0.581E-02    0.104E-02
DAV:   8    -0.655373239326E+02   -0.36900E-03   -0.14146E-04   376   0.462E-02    0.672E-03
DAV:   9    -0.655375353285E+02   -0.21140E-03   -0.71320E-05   304   0.312E-02    0.396E-03
DAV:  10    -0.655376078237E+02   -0.72495E-04   -0.18702E-05   304   0.203E-02
  11 F= -.65537608E+02 E0= -.65537587E+02  d E =-.698578E-01
 trial-energy change:   -0.069858  1 .order   -0.069694   -0.079930   -0.059459
 step:   0.3075(harm=  0.3075)  dis= 0.02782  next Energy=   -65.623795 (dE=-0.156E+00)
 bond charge predicted
       N       E                     dE             d eps       ncg     rms          rms(c)
DAV:   1    -0.657979040461E+02   -0.26037E+00   -0.40742E+01   400   0.372E+01    0.236E+00
DAV:   2    -0.656884419271E+02    0.10946E+00   -0.11138E+00   464   0.756E+00    0.136E+00
DAV:   3    -0.656338500820E+02    0.54592E-01   -0.34797E-01   472   0.365E+00    0.409E-01
DAV:   4    -0.656313805740E+02    0.24695E-02   -0.26485E-02   464   0.111E+00    0.228E-01
DAV:   5    -0.656313365609E+02    0.44013E-04   -0.62189E-03   488   0.460E-01    0.720E-02
DAV:   6    -0.656315593723E+02   -0.22281E-03   -0.10883E-03   496   0.198E-01    0.382E-02
DAV:   7    -0.656322294565E+02   -0.67008E-03   -0.43966E-04   384   0.112E-01    0.222E-02
DAV:   8    -0.656328386352E+02   -0.60918E-03   -0.29110E-04   392   0.740E-02    0.145E-02
DAV:   9    -0.656333273426E+02   -0.48871E-03   -0.30309E-04   360   0.658E-02    0.915E-03
DAV:  10    -0.656334839028E+02   -0.15656E-03   -0.47870E-05   352   0.348E-02    0.502E-03
DAV:  11    -0.656335566780E+02   -0.72775E-04   -0.18885E-05   288   0.201E-02
  12 F= -.65633557E+02 E0= -.65633520E+02  d E =-.165807E+00
 curvature:  -0.94 expect dE=-0.291E+00 dE for cont linesearch -0.134E-02
 ZBRENT: extrapolating
 opt :   0.3400  next Energy=   -65.635084 (dE=-0.167E+00)
 bond charge predicted
       N       E                     dE             d eps       ncg     rms          rms(c)
DAV:   1    -0.656386706704E+02   -0.51868E-02   -0.84041E-01   416   0.537E+00    0.337E-01
DAV:   2    -0.656363949362E+02    0.22757E-02   -0.21825E-02   416   0.905E-01    0.188E-01
DAV:   3    -0.656351140865E+02    0.12808E-02   -0.75325E-03   456   0.480E-01    0.597E-02
DAV:   4    -0.656350748619E+02    0.39225E-04   -0.57683E-04   456   0.154E-01
  13 F= -.65635075E+02 E0= -.65635034E+02  d E =-.167325E+00
 curvature:  -1.08 expect dE=-0.432E+00 dE for cont linesearch -0.106E-04
 trial: gam= 0.66871 g(F)=  0.211E+00 g(S)=  0.191E+00 ort = 0.784E-02 (trialstep = 0.131E+00)
 search vector abs. value=  0.319E+01
 bond charge predicted
       N       E                     dE             d eps       ncg     rms          rms(c)
DAV:   1    -0.656968577111E+02   -0.61744E-01   -0.66690E+00   400   0.144E+01    0.858E-01
DAV:   2    -0.656876122474E+02    0.92455E-02   -0.16142E-01   472   0.244E+00    0.513E-01
DAV:   3    -0.656783743622E+02    0.92379E-02   -0.39054E-02   448   0.121E+00    0.126E-01
DAV:   4    -0.656785126177E+02   -0.13826E-03   -0.23134E-03   464   0.328E-01    0.691E-02
DAV:   5    -0.656787437125E+02   -0.23109E-03   -0.42525E-04   400   0.121E-01    0.230E-02
DAV:   6    -0.656789754936E+02   -0.23178E-03   -0.83295E-05   344   0.566E-02    0.133E-02
DAV:   7    -0.656793520331E+02   -0.37654E-03   -0.13897E-04   360   0.523E-02    0.979E-03
DAV:   8    -0.656796143762E+02   -0.26234E-03   -0.82932E-05   352   0.412E-02    0.618E-03
DAV:   9    -0.656797577105E+02   -0.14333E-03   -0.60827E-05   312   0.288E-02    0.341E-03
DAV:  10    -0.656798067757E+02   -0.49065E-04   -0.10805E-05   352   0.148E-02
  14 F= -.65679807E+02 E0= -.65679780E+02  d E =-.447319E-01
 trial-energy change:   -0.044732  1 .order   -0.045000   -0.053304   -0.036696
 step:   0.4204(harm=  0.4204)  dis= 0.02636  next Energy=   -65.720613 (dE=-0.855E-01)
 bond charge predicted
       N       E                     dE             d eps       ncg     rms          rms(c)
DAV:   1    -0.658113421319E+02   -0.13158E+00   -0.32480E+01   384   0.321E+01    0.193E+00
DAV:   2    -0.657664842764E+02    0.44858E-01   -0.81580E-01   472   0.621E+00    0.118E+00
DAV:   3    -0.657208940770E+02    0.45590E-01   -0.19052E-01   448   0.290E+00    0.275E-01
DAV:   4    -0.657203932781E+02    0.50080E-03   -0.10286E-02   480   0.729E-01    0.156E-01
DAV:   5    -0.657204239744E+02   -0.30696E-04   -0.20013E-03   456   0.263E-01    0.511E-02
DAV:   6    -0.657208366639E+02   -0.41269E-03   -0.35633E-04   424   0.110E-01    0.277E-02
DAV:   7    -0.657214682454E+02   -0.63158E-03   -0.27287E-04   400   0.858E-02    0.182E-02
DAV:   8    -0.657220387574E+02   -0.57051E-03   -0.28639E-04   408   0.800E-02    0.120E-02
DAV:   9    -0.657223100652E+02   -0.27131E-03   -0.13705E-04   392   0.500E-02    0.671E-03
DAV:  10    -0.657223905676E+02   -0.80502E-04   -0.19886E-05   352   0.237E-02
  15 F= -.65722391E+02 E0= -.65722378E+02  d E =-.873157E-01
 curvature:  -1.65 expect dE=-0.587E+00 dE for cont linesearch -0.715E-04
 trial: gam= 0.63753 g(F)=  0.221E+00 g(S)=  0.135E+00 ort = 0.118E-01 (trialstep = 0.189E+00)
 search vector abs. value=  0.167E+01
 bond charge predicted
       N       E                     dE             d eps       ncg     rms          rms(c)
DAV:   1    -0.657944388426E+02   -0.72129E-01   -0.70850E+00   392   0.153E+01    0.958E-01
DAV:   2    -0.657787213360E+02    0.15718E-01   -0.17677E-01   464   0.284E+00    0.573E-01
DAV:   3    -0.657679305013E+02    0.10791E-01   -0.64358E-02   488   0.158E+00    0.198E-01
DAV:   4    -0.657676669368E+02    0.26356E-03   -0.65824E-03   456   0.557E-01    0.117E-01
DAV:   5    -0.657678130820E+02   -0.14615E-03   -0.21389E-03   472   0.260E-01    0.388E-02
DAV:   6    -0.657678808155E+02   -0.67734E-04   -0.32797E-04   472   0.119E-01
  16 F= -.65767881E+02 E0= -.65767823E+02  d E =-.454902E-01
 trial-energy change:   -0.045490  1 .order   -0.047418   -0.068656   -0.026179
 step:   0.3053(harm=  0.3053)  dis= 0.01186  next Energy=   -65.777876 (dE=-0.555E-01)
 bond charge predicted
       N       E                     dE             d eps       ncg     rms          rms(c)
DAV:   1    -0.657847337448E+02   -0.16921E-01   -0.27014E+00   384   0.944E+00    0.587E-01
DAV:   2    -0.657785855384E+02    0.61482E-02   -0.65972E-02   480   0.167E+00    0.349E-01
DAV:   3    -0.657742923857E+02    0.42932E-02   -0.24021E-02   496   0.938E-01    0.118E-01
DAV:   4    -0.657743070943E+02   -0.14709E-04   -0.23757E-03   464   0.332E-01    0.694E-02
DAV:   5    -0.657745186995E+02   -0.21161E-03   -0.81512E-04   464   0.162E-01    0.240E-02
DAV:   6    -0.657746006803E+02   -0.81981E-04   -0.10247E-04   368   0.713E-02
  17 F= -.65774601E+02 E0= -.65774468E+02  d E =-.522101E-01
 curvature:  -0.70 expect dE=-0.251E+00 dE for cont linesearch -0.720E-05
 trial: gam= 1.07632 g(F)=  0.337E+00 g(S)=  0.219E-01 ort =-0.414E-02 (trialstep = 0.155E+00)
 search vector abs. value=  0.228E+01
 bond charge predicted
       N       E                     dE             d eps       ncg     rms          rms(c)
DAV:   1    -0.658289146788E+02   -0.54396E-01   -0.64880E+00   392   0.145E+01    0.778E-01
DAV:   2    -0.658229047236E+02    0.60100E-02   -0.13910E-01   488   0.246E+00    0.467E-01
DAV:   3    -0.658148955404E+02    0.80092E-02   -0.30330E-02   488   0.112E+00    0.115E-01
DAV:   4    -0.658147058521E+02    0.18969E-03   -0.24651E-03   440   0.346E-01    0.650E-02
DAV:   5    -0.658148986520E+02   -0.19280E-03   -0.83205E-04   464   0.162E-01    0.279E-02
DAV:   6    -0.658151058791E+02   -0.20723E-03   -0.13375E-04   352   0.762E-02    0.157E-02
DAV:   7    -0.658153975988E+02   -0.29172E-03   -0.94850E-05   272   0.524E-02    0.979E-03
DAV:   8    -0.658156399581E+02   -0.24236E-03   -0.74955E-05   320   0.380E-02    0.559E-03
DAV:   9    -0.658158111548E+02   -0.17120E-03   -0.72609E-05   304   0.290E-02    0.375E-03
DAV:  10    -0.658158522668E+02   -0.41112E-04   -0.15266E-05   328   0.181E-02
  18 F= -.65815852E+02 E0= -.65815797E+02  d E =-.412516E-01
 trial-energy change:   -0.041252  1 .order   -0.041374   -0.054934   -0.027813
 step:   0.3141(harm=  0.3141)  dis= 0.02447  next Energy=   -65.830236 (dE=-0.556E-01)
 bond charge predicted
       N       E                     dE             d eps       ncg     rms          rms(c)
DAV:   1    -0.658450624125E+02   -0.29251E-01   -0.68449E+00   400   0.149E+01    0.805E-01
DAV:   2    -0.658387129629E+02    0.63494E-02   -0.14653E-01   448   0.253E+00    0.484E-01
DAV:   3    -0.658302299957E+02    0.84830E-02   -0.31716E-02   472   0.115E+00    0.117E-01
DAV:   4    -0.658300130607E+02    0.21693E-03   -0.25090E-03   416   0.351E-01    0.660E-02
DAV:   5    -0.658301601701E+02   -0.14711E-03   -0.82640E-04   424   0.164E-01    0.269E-02
DAV:   6    -0.658303412688E+02   -0.18110E-03   -0.12697E-04   312   0.758E-02    0.151E-02
DAV:   7    -0.658305889481E+02   -0.24768E-03   -0.78486E-05   280   0.493E-02    0.857E-03
DAV:   8    -0.658307826094E+02   -0.19366E-03   -0.46305E-05   328   0.327E-02    0.504E-03
DAV:   9    -0.658309576610E+02   -0.17505E-03   -0.63279E-05   312   0.273E-02    0.338E-03
DAV:  10    -0.658310039848E+02   -0.46324E-04   -0.14377E-05   320   0.161E-02
  19 F= -.65831004E+02 E0= -.65830981E+02  d E =-.564033E-01
 curvature:  -1.01 expect dE=-0.261E+00 dE for cont linesearch -0.528E-04
 trial: gam= 0.57958 g(F)=  0.177E+00 g(S)=  0.814E-01 ort = 0.109E-01 (trialstep = 0.187E+00)
 search vector abs. value=  0.104E+01
 bond charge predicted
       N       E                     dE             d eps       ncg     rms          rms(c)
DAV:   1    -0.658768757449E+02   -0.45918E-01   -0.46909E+00   384   0.124E+01    0.582E-01
DAV:   2    -0.658754050517E+02    0.14707E-02   -0.96601E-02   448   0.195E+00    0.344E-01
DAV:   3    -0.658709668601E+02    0.44382E-02   -0.14713E-02   456   0.759E-01    0.100E-01
DAV:   4    -0.658708936349E+02    0.73225E-04   -0.10609E-03   456   0.211E-01    0.493E-02
DAV:   5    -0.658709707100E+02   -0.77075E-04   -0.16763E-04   296   0.815E-02
  20 F= -.65870971E+02 E0= -.65870964E+02  d E =-.399667E-01
 trial-energy change:   -0.039967  1 .order   -0.040759   -0.049400   -0.032118
 step:   0.5342(harm=  0.5342)  dis= 0.04929  next Energy=   -65.901608 (dE=-0.706E-01)
 bond charge predicted
       N       E                     dE             d eps       ncg     rms          rms(c)
DAV:   1    -0.659185272887E+02   -0.47634E-01   -0.16261E+01   384   0.234E+01    0.109E+00
DAV:   2    -0.659142244286E+02    0.43029E-02   -0.34900E-01   520   0.380E+00    0.645E-01
DAV:   3    -0.658993956782E+02    0.14829E-01   -0.48729E-02   488   0.142E+00    0.191E-01
DAV:   4    -0.658990854370E+02    0.31024E-03   -0.33824E-03   440   0.382E-01    0.929E-02
DAV:   5    -0.658993477069E+02   -0.26227E-03   -0.69275E-04   400   0.156E-01    0.319E-02
DAV:   6    -0.658997106673E+02   -0.36296E-03   -0.11592E-04   352   0.679E-02    0.176E-02
DAV:   7    -0.659001814968E+02   -0.47083E-03   -0.18430E-04   344   0.626E-02    0.127E-02
DAV:   8    -0.659004913299E+02   -0.30983E-03   -0.10083E-04   360   0.468E-02    0.711E-03
DAV:   9    -0.659006411098E+02   -0.14978E-03   -0.77322E-05   376   0.354E-02    0.420E-03
DAV:  10    -0.659006745456E+02   -0.33436E-04   -0.17049E-05   344   0.191E-02
  21 F= -.65900675E+02 E0= -.65900674E+02  d E =-.696706E-01
 curvature:  -1.05 expect dE=-0.587E+00 dE for cont linesearch -0.547E-06
 trial: gam= 2.23922 g(F)=  0.495E+00 g(S)=  0.656E-01 ort =-0.736E-03 (trialstep = 0.462E-01)
 search vector abs. value=  0.576E+01
 bond charge predicted
       N       E                     dE             d eps       ncg     rms          rms(c)
DAV:   1    -0.659267057466E+02   -0.26065E-01   -0.16316E+00   384   0.712E+00    0.350E-01
DAV:   2    -0.659256811853E+02    0.10246E-02   -0.33656E-02   464   0.114E+00    0.205E-01
DAV:   3    -0.659240867606E+02    0.15944E-02   -0.71198E-03   472   0.500E-01    0.645E-02
DAV:   4    -0.659240573456E+02    0.29415E-04   -0.49522E-04   456   0.147E-01
  22 F= -.65924057E+02 E0= -.65924057E+02  d E =-.233828E-01
 ZBRENT: can't locate minimum, use default step
 trial-energy change:   -0.023383  1 .order   -0.023774   -0.025797   -0.021750
 step:   0.1847(harm=  0.2944)  dis= 0.04472  next Energy=   -65.982902 (dE=-0.822E-01)
 bond charge predicted
       N       E                     dE             d eps       ncg     rms          rms(c)
DAV:   1    -0.659903965762E+02   -0.66310E-01   -0.14698E+01   384   0.216E+01    0.107E+00
DAV:   2    -0.659813913503E+02    0.90052E-02   -0.31694E-01   480   0.368E+00    0.622E-01
DAV:   3    -0.659682879220E+02    0.13103E-01   -0.61625E-02   480   0.153E+00    0.199E-01
DAV:   4    -0.659680501605E+02    0.23776E-03   -0.42660E-03   440   0.446E-01    0.109E-01
DAV:   5    -0.659682946380E+02   -0.24448E-03   -0.11918E-03   424   0.197E-01    0.345E-02
DAV:   6    -0.659685507599E+02   -0.25612E-03   -0.21299E-04   368   0.950E-02    0.187E-02
DAV:   7    -0.659689171620E+02   -0.36640E-03   -0.14291E-04   328   0.607E-02    0.121E-02
DAV:   8    -0.659692399266E+02   -0.32276E-03   -0.99905E-05   320   0.499E-02    0.726E-03
DAV:   9    -0.659694244017E+02   -0.18448E-03   -0.86080E-05   360   0.357E-02    0.487E-03
DAV:  10    -0.659694691474E+02   -0.44746E-04   -0.23131E-05   344   0.190E-02
  23 F= -.65969469E+02 E0= -.65969469E+02  d E =-.687946E-01
 curvature:  -1.22 expect dE=-0.310E+00 dE for cont linesearch -0.760E-02
 ZBRENT: increasing intervall
 opt :   0.4618  next Energy=   -65.943863 (dE=-0.432E-01)
 bond charge predicted
       N       E                     dE             d eps       ncg     rms          rms(c)
DAV:   1    -0.660196452894E+02   -0.50221E-01   -0.60444E+01   384   0.459E+01    0.223E+00
DAV:   2    -0.660008485136E+02    0.18797E-01   -0.14906E+00   480   0.749E+00    0.123E+00
DAV:   3    -0.659533782327E+02    0.47470E-01   -0.21657E-01   536   0.278E+00    0.422E-01
DAV:   4    -0.659511905890E+02    0.21876E-02   -0.12414E-02   488   0.712E-01    0.214E-01
DAV:   5    -0.659510693994E+02    0.12119E-03   -0.32230E-03   472   0.322E-01    0.637E-02
DAV:   6    -0.659515146667E+02   -0.44527E-03   -0.67734E-04   488   0.162E-01    0.328E-02
DAV:   7    -0.659521376455E+02   -0.62298E-03   -0.30394E-04   376   0.899E-02    0.208E-02
DAV:   8    -0.659527284524E+02   -0.59081E-03   -0.25742E-04   368   0.736E-02    0.132E-02
DAV:   9    -0.659530117351E+02   -0.28328E-03   -0.15563E-04   392   0.498E-02    0.762E-03
DAV:  10    -0.659530638658E+02   -0.52131E-04   -0.27956E-05   328   0.238E-02
  24 F= -.65953064E+02 E0= -.65953063E+02  d E =-.523893E-01
 curvature:   4.12 expect dE= 0.414E+01 dE for cont linesearch  0.645E-01
 ZBRENT: bracketing found
 ZBRENT: interpolating
 opt :   0.2918  next Energy=   -65.979606 (dE=-0.789E-01)
 bond charge predicted
       N       E                     dE             d eps       ncg     rms          rms(c)
DAV:   1    -0.660016284582E+02   -0.48617E-01   -0.23409E+01   384   0.285E+01    0.131E+00
DAV:   2    -0.660007114586E+02    0.91700E-03   -0.58094E-01   480   0.444E+00    0.745E-01
DAV:   3    -0.659795542781E+02    0.21157E-01   -0.10151E-01   488   0.181E+00    0.231E-01
DAV:   4    -0.659784862577E+02    0.10680E-02   -0.64636E-03   472   0.568E-01    0.129E-01
DAV:   5    -0.659778872163E+02    0.59904E-03   -0.18180E-03   512   0.249E-01    0.390E-02
DAV:   6    -0.659778550888E+02    0.32128E-04   -0.24886E-04   368   0.101E-01
  25 F= -.65977855E+02 E0= -.65977855E+02  d E =-.771805E-01
 curvature:  -0.65 expect dE=-0.266E+00 dE for cont linesearch -0.754E-04
 trial: gam= 0.67103 g(F)=  0.195E+00 g(S)=  0.217E+00 ort =-0.259E-01 (trialstep = 0.953E-01)
 search vector abs. value=  0.297E+01
 bond charge predicted
       N       E                     dE             d eps       ncg     rms          rms(c)
DAV:   1    -0.660172892944E+02   -0.39402E-01   -0.35606E+00   384   0.102E+01    0.529E-01
DAV:   2    -0.660168366004E+02    0.45269E-03   -0.79649E-02   472   0.172E+00    0.324E-01
DAV:   3    -0.660142327300E+02    0.26039E-02   -0.14266E-02   440   0.788E-01    0.693E-02
DAV:   4    -0.660142315553E+02    0.11746E-05   -0.89432E-04   472   0.204E-01
  26 F= -.66014232E+02 E0= -.66014231E+02  d E =-.363765E-01
 ZBRENT: can't locate minimum, use default step
 trial-energy change:   -0.036376  1 .order   -0.035064   -0.037546   -0.032581
 step:   0.3813(harm=  0.7209)  dis= 0.06994  next Energy=   -66.119835 (dE=-0.142E+00)
 bond charge predicted
       N       E                     dE             d eps       ncg     rms          rms(c)
DAV:   1    -0.661267075545E+02   -0.11247E+00   -0.32071E+01   384   0.309E+01    0.163E+00
DAV:   2    -0.661167112220E+02    0.99963E-02   -0.76026E-01   480   0.598E+00    0.101E+00
DAV:   3    -0.660874767995E+02    0.29234E-01   -0.13259E-01   496   0.258E+00    0.211E-01
DAV:   4    -0.660873067259E+02    0.17007E-03   -0.74266E-03   464   0.626E-01    0.124E-01
DAV:   5    -0.660876372889E+02   -0.33056E-03   -0.12840E-03   480   0.217E-01    0.416E-02
DAV:   6    -0.660880265397E+02   -0.38925E-03   -0.21372E-04   328   0.905E-02    0.203E-02
DAV:   7    -0.660885247633E+02   -0.49822E-03   -0.18732E-04   368   0.682E-02    0.147E-02
DAV:   8    -0.660888859416E+02   -0.36118E-03   -0.11663E-04   328   0.550E-02    0.936E-03
DAV:   9    -0.660891048348E+02   -0.21889E-03   -0.11744E-04   376   0.401E-02    0.532E-03
DAV:  10    -0.660891410941E+02   -0.36259E-04   -0.15353E-05   344   0.247E-02
  27 F= -.66089141E+02 E0= -.66089141E+02  d E =-.111286E+00
 curvature:  -1.92 expect dE=-0.466E+00 dE for cont linesearch -0.200E-01
 ZBRENT: increasing intervall
 opt :   0.9532  next Energy=   -66.094859 (dE=-0.117E+00)
 bond charge predicted
       N       E                     dE             d eps       ncg     rms          rms(c)
DAV:   1    -0.662125174252E+02   -0.12341E+00   -0.13793E+02   384   0.709E+01    0.370E+00
DAV:   2    -0.661950460799E+02    0.17471E-01   -0.38430E+00   456   0.117E+01    0.195E+00
DAV:   3    -0.660926195794E+02    0.10243E+00   -0.48623E-01   560   0.436E+00    0.474E-01
DAV:   4    -0.660895837238E+02    0.30359E-02   -0.21690E-02   480   0.986E-01    0.244E-01
DAV:   5    -0.660892260561E+02    0.35767E-03   -0.40088E-03   480   0.382E-01    0.823E-02
DAV:   6    -0.660898378528E+02   -0.61180E-03   -0.86645E-04   488   0.171E-01    0.374E-02
DAV:   7    -0.660904919925E+02   -0.65414E-03   -0.36024E-04   400   0.993E-02    0.266E-02
DAV:   8    -0.660910450143E+02   -0.55302E-03   -0.32607E-04   392   0.849E-02    0.150E-02
DAV:   9    -0.660912935422E+02   -0.24853E-03   -0.24297E-04   392   0.602E-02    0.970E-03
DAV:  10    -0.660913078631E+02   -0.14321E-04   -0.27583E-05   352   0.261E-02
  28 F= -.66091308E+02 E0= -.66091307E+02  d E =-.113453E+00
 curvature:  -0.55 expect dE=-0.687E+00 dE for cont linesearch -0.517E-02
 ZBRENT: bracketing found
 ZBRENT: interpolating
 opt :   0.6744  next Energy=   -66.114614 (dE=-0.137E+00)
 bond charge predicted
       N       E                     dE             d eps       ncg     rms          rms(c)
DAV:   1    -0.661912292241E+02   -0.99936E-01   -0.34822E+01   448   0.355E+01    0.175E+00
DAV:   2    -0.661432370818E+02    0.47992E-01   -0.44625E-01   448   0.520E+00    0.901E-01
DAV:   3    -0.661149131701E+02    0.28324E-01   -0.10857E-01   480   0.192E+00    0.214E-01
DAV:   4    -0.661137315037E+02    0.11817E-02   -0.46260E-03   496   0.477E-01    0.117E-01
DAV:   5    -0.661130399624E+02    0.69154E-03   -0.12263E-03   496   0.213E-01    0.367E-02
DAV:   6    -0.661130331787E+02    0.67837E-05   -0.12229E-04   360   0.725E-02
  29 F= -.66113033E+02 E0= -.66113033E+02  d E =-.135178E+00
 curvature:  -2.48 expect dE=-0.134E+01 dE for cont linesearch -0.536E-04
 trial: gam= 1.31851 g(F)=  0.516E+00 g(S)=  0.257E-01 ort =-0.802E-02 (trialstep = 0.110E+00)
 search vector abs. value=  0.568E+01
 bond charge predicted
       N       E                     dE             d eps       ncg     rms          rms(c)
DAV:   1    -0.661656108336E+02   -0.52571E-01   -0.94780E+00   384   0.172E+01    0.941E-01
DAV:   2    -0.661595544324E+02    0.60564E-02   -0.22780E-01   496   0.317E+00    0.576E-01
DAV:   3    -0.661509571350E+02    0.85973E-02   -0.41873E-02   440   0.135E+00    0.191E-01
DAV:   4    -0.661508468305E+02    0.11030E-03   -0.34715E-03   496   0.374E-01    0.119E-01
DAV:   5    -0.661506617213E+02    0.18511E-03   -0.59390E-04   488   0.167E-01    0.334E-02
DAV:   6    -0.661507101329E+02   -0.48412E-04   -0.11174E-04   352   0.677E-02
  30 F= -.66150710E+02 E0= -.66150709E+02  d E =-.376770E-01
 trial-energy change:   -0.037677  1 .order   -0.036857   -0.058618   -0.015095
 step:   0.1437(harm=  0.1486)  dis= 0.03592  next Energy=   -66.153015 (dE=-0.400E-01)
 bond charge predicted
       N       E                     dE             d eps       ncg     rms          rms(c)
DAV:   1    -0.661545354410E+02   -0.38737E-02   -0.87398E-01   400   0.528E+00    0.281E-01
DAV:   2    -0.661538921277E+02    0.64331E-03   -0.20728E-02   512   0.872E-01    0.165E-01
DAV:   3    -0.661530743760E+02    0.81775E-03   -0.38652E-03   496   0.383E-01    0.536E-02
DAV:   4    -0.661531386720E+02   -0.64296E-04   -0.33146E-04   440   0.112E-01
  31 F= -.66153139E+02 E0= -.66153137E+02  d E =-.401055E-01
 curvature:  -0.78 expect dE=-0.800E-01 dE for cont linesearch -0.545E-04
 trial: gam= 0.19319 g(F)=  0.974E-01 g(S)=  0.491E-02 ort = 0.199E-01 (trialstep = 0.117E+00)
 search vector abs. value=  0.322E+00
 bond charge predicted
       N       E                     dE             d eps       ncg     rms          rms(c)
DAV:   1    -0.661649231367E+02   -0.11849E-01   -0.59398E-01   400   0.440E+00    0.209E-01
DAV:   2    -0.661646703793E+02    0.25276E-03   -0.12833E-02   464   0.711E-01    0.127E-01
DAV:   3    -0.661641936406E+02    0.47674E-03   -0.28463E-03   480   0.334E-01    0.396E-02
DAV:   4    -0.661642238539E+02   -0.30213E-04   -0.22182E-04   328   0.106E-01
  32 F= -.66164224E+02 E0= -.66164223E+02  d E =-.110852E-01
 ZBRENT: can't locate minimum, use default step
 trial-energy change:   -0.011085  1 .order   -0.011157   -0.012420   -0.009894
 step:   0.4680(harm=  0.5753)  dis= 0.02517  next Energy=   -66.183675 (dE=-0.305E-01)
 bond charge predicted
       N       E                     dE             d eps       ncg     rms          rms(c)
DAV:   1    -0.661899656950E+02   -0.25772E-01   -0.53225E+00   384   0.131E+01    0.619E-01
DAV:   2    -0.661884424252E+02    0.15233E-02   -0.11418E-01   440   0.226E+00    0.387E-01
DAV:   3    -0.661841046826E+02    0.43377E-02   -0.24738E-02   472   0.104E+00    0.114E-01
DAV:   4    -0.661840433914E+02    0.61291E-04   -0.21034E-03   480   0.316E-01    0.659E-02
DAV:   5    -0.661841719891E+02   -0.12860E-03   -0.41337E-04   440   0.123E-01    0.197E-02
DAV:   6    -0.661843062250E+02   -0.13424E-03   -0.50921E-05   344   0.545E-02    0.105E-02
DAV:   7    -0.661844856644E+02   -0.17944E-03   -0.49121E-05   304   0.362E-02    0.648E-03
DAV:   8    -0.661846374438E+02   -0.15178E-03   -0.46892E-05   328   0.294E-02    0.362E-03
DAV:   9    -0.661847029703E+02   -0.65527E-04   -0.27317E-05   272   0.190E-02
  33 F= -.66184703E+02 E0= -.66184702E+02  d E =-.315643E-01
 curvature:  -0.83 expect dE=-0.534E-01 dE for cont linesearch -0.230E-02
 ZBRENT: increasing intervall
 opt :   1.1700  next Energy=   -66.167408 (dE=-0.143E-01)
 bond charge predicted
       N       E                     dE             d eps       ncg     rms          rms(c)
DAV:   1    -0.661889037152E+02   -0.42663E-02   -0.21280E+01   384   0.263E+01    0.126E+00
DAV:   2    -0.661826183406E+02    0.62854E-02   -0.45853E-01   472   0.478E+00    0.787E-01
DAV:   3    -0.661654988951E+02    0.17119E-01   -0.94569E-02   464   0.211E+00    0.223E-01
DAV:   4    -0.661650064427E+02    0.49245E-03   -0.74671E-03   464   0.615E-01    0.130E-01
DAV:   5    -0.661651369290E+02   -0.13049E-03   -0.16486E-03   512   0.239E-01    0.396E-02
DAV:   6    -0.661653629880E+02   -0.22606E-03   -0.27899E-04   392   0.115E-01    0.201E-02
DAV:   7    -0.661656332328E+02   -0.27024E-03   -0.90660E-05   312   0.552E-02    0.103E-02
DAV:   8    -0.661659364940E+02   -0.30326E-03   -0.12178E-04   400   0.468E-02    0.715E-03
DAV:   9    -0.661660808037E+02   -0.14431E-03   -0.57638E-05   288   0.315E-02    0.408E-03
DAV:  10    -0.661661096236E+02   -0.28820E-04   -0.22175E-05   360   0.204E-02
  34 F= -.66166110E+02 E0= -.66166109E+02  d E =-.129710E-01
 curvature:   6.21 expect dE= 0.279E+01 dE for cont linesearch  0.134E+00
 ZBRENT: bracketing found
 ZBRENT: interpolating
 opt :   0.6535  next Energy=   -66.187482 (dE=-0.343E-01)
 bond charge predicted
       N       E                     dE             d eps       ncg     rms          rms(c)
DAV:   1    -0.661941123713E+02   -0.28032E-01   -0.12155E+01   384   0.209E+01    0.933E-01
DAV:   2    -0.661966544737E+02   -0.25421E-02   -0.29656E-01   464   0.325E+00    0.535E-01
DAV:   3    -0.661877866480E+02    0.88678E-02   -0.53637E-02   528   0.135E+00    0.173E-01
DAV:   4    -0.661871363632E+02    0.65028E-03   -0.36837E-03   472   0.405E-01    0.101E-01
DAV:   5    -0.661869101656E+02    0.22620E-03   -0.10229E-03   528   0.192E-01    0.293E-02
DAV:   6    -0.661869360282E+02   -0.25863E-04   -0.11403E-04   344   0.744E-02
  35 F= -.66186936E+02 E0= -.66186936E+02  d E =-.337974E-01
 curvature:  -0.13 expect dE=-0.146E-01 dE for cont linesearch -0.121E-05
 trial: gam= 1.13798 g(F)=  0.105E+00 g(S)=  0.841E-02 ort =-0.174E-02 (trialstep = 0.137E+00)
 search vector abs. value=  0.526E+00
 bond charge predicted
       N       E                     dE             d eps       ncg     rms          rms(c)
DAV:   1    -0.662003837313E+02   -0.13474E-01   -0.13495E+00   384   0.662E+00    0.248E-01
DAV:   2    -0.662013826672E+02   -0.99894E-03   -0.25665E-02   464   0.980E-01    0.159E-01
DAV:   3    -0.662008348470E+02    0.54782E-03   -0.24966E-03   432   0.331E-01    0.441E-02
DAV:   4    -0.662008351768E+02   -0.32985E-06   -0.18712E-04   440   0.918E-02
  36 F= -.66200835E+02 E0= -.66200835E+02  d E =-.138991E-01
 trial-energy change:   -0.013899  1 .order   -0.013356   -0.015274   -0.011438
 step:   0.2852(harm=  0.5465)  dis= 0.01882  next Energy=   -66.207682 (dE=-0.207E-01)
 bond charge predicted
       N       E                     dE             d eps       ncg     rms          rms(c)
DAV:   1    -0.662109345198E+02   -0.10100E-01   -0.15715E+00   384   0.714E+00    0.267E-01
DAV:   2    -0.662117499755E+02   -0.81546E-03   -0.29920E-02   440   0.106E+00    0.172E-01
DAV:   3    -0.662108021696E+02    0.94781E-03   -0.30575E-03   496   0.365E-01    0.488E-02
DAV:   4    -0.662107850523E+02    0.17117E-04   -0.23466E-04   424   0.102E-01
  37 F= -.66210785E+02 E0= -.66210785E+02  d E =-.238490E-01
 curvature:  -0.77 expect dE=-0.873E-01 dE for cont linesearch -0.408E-02
 ZBRENT: increasing intervall
 opt :   0.5811  next Energy=   -66.217479 (dE=-0.305E-01)
 bond charge predicted
       N       E                     dE             d eps       ncg     rms          rms(c)
DAV:   1    -0.662169881218E+02   -0.61860E-02   -0.62766E+00   384   0.143E+01    0.539E-01
DAV:   2    -0.662200192919E+02   -0.30312E-02   -0.11778E-01   456   0.218E+00    0.347E-01
DAV:   3    -0.662164388409E+02    0.35805E-02   -0.12401E-02   504   0.756E-01    0.947E-02
DAV:   4    -0.662163920932E+02    0.46748E-04   -0.95739E-04   456   0.204E-01
  38 F= -.66216392E+02 E0= -.66216392E+02  d E =-.294561E-01
 curvature:  -1.26 expect dE=-0.492E+00 dE for cont linesearch -0.342E-03
 trial: gam= 3.57263 g(F)=  0.359E+00 g(S)=  0.325E-01 ort =-0.120E-01 (trialstep = 0.169E-01)
 search vector abs. value=  0.703E+01
 bond charge predicted
       N       E                     dE             d eps       ncg     rms          rms(c)
DAV:   1    -0.662223574912E+02   -0.59187E-02   -0.27476E-01   432   0.294E+00    0.120E-01
DAV:   2    -0.662224098966E+02   -0.52405E-04   -0.52738E-03   464   0.440E-01    0.726E-02
DAV:   3    -0.662223272561E+02    0.82641E-04   -0.82182E-04   448   0.176E-01
  39 F= -.66222327E+02 E0= -.66222327E+02  d E =-.593516E-02
 ZBRENT: can't locate minimum, use default step
 trial-energy change:   -0.005935  1 .order   -0.005678   -0.005910   -0.005446
 step:   0.0677(harm=  0.2160)  dis= 0.01622  next Energy=   -66.254084 (dE=-0.377E-01)
 bond charge predicted
       N       E                     dE             d eps       ncg     rms          rms(c)
DAV:   1    -0.662379523314E+02   -0.15542E-01   -0.24608E+00   384   0.879E+00    0.360E-01
DAV:   2    -0.662381330181E+02   -0.18069E-03   -0.45520E-02   424   0.132E+00    0.216E-01
DAV:   3    -0.662365311248E+02    0.16019E-02   -0.67489E-03   496   0.516E-01    0.644E-02
DAV:   4    -0.662365908134E+02   -0.59689E-04   -0.46252E-04   400   0.152E-01
  40 F= -.66236591E+02 E0= -.66236591E+02  d E =-.201987E-01
 curvature:  -0.97 expect dE=-0.247E+00 dE for cont linesearch -0.872E-02
 ZBRENT: increasing intervall
 opt :   0.1694  next Energy=   -66.255018 (dE=-0.386E-01)
 bond charge predicted
       N       E                     dE             d eps       ncg     rms          rms(c)
DAV:   1    -0.662588350616E+02   -0.22304E-01   -0.98474E+00   384   0.177E+01    0.724E-01
DAV:   2    -0.662595634323E+02   -0.72837E-03   -0.18316E-01   472   0.268E+00    0.428E-01
DAV:   3    -0.662535754867E+02    0.59879E-02   -0.26971E-02   496   0.105E+00    0.129E-01
DAV:   4    -0.662535954373E+02   -0.19951E-04   -0.19777E-03   448   0.317E-01    0.710E-02
DAV:   5    -0.662538048950E+02   -0.20946E-03   -0.57750E-04   440   0.141E-01    0.235E-02
DAV:   6    -0.662539582906E+02   -0.15340E-03   -0.75567E-05   344   0.620E-02    0.132E-02
DAV:   7    -0.662542424230E+02   -0.28413E-03   -0.12085E-04   320   0.553E-02    0.950E-03
DAV:   8    -0.662543987109E+02   -0.15629E-03   -0.46176E-05   312   0.358E-02    0.483E-03
DAV:   9    -0.662544925190E+02   -0.93808E-04   -0.58645E-05   272   0.268E-02
  41 F= -.66254493E+02 E0= -.66254492E+02  d E =-.381004E-01
 curvature:  -2.05 expect dE=-0.318E+00 dE for cont linesearch -0.276E-02
 ZBRENT: increasing intervall
 opt :   0.3726  next Energy=   -66.242914 (dE=-0.265E-01)
 bond charge predicted
       N       E                     dE             d eps       ncg     rms          rms(c)
DAV:   1    -0.662518619350E+02    0.25368E-02   -0.40098E+01   384   0.369E+01    0.151E+00
DAV:   2    -0.662652150837E+02   -0.13353E-01   -0.86021E-01   464   0.547E+00    0.849E-01
DAV:   3    -0.662437225805E+02    0.21493E-01   -0.10434E-01   560   0.200E+00    0.266E-01
DAV:   4    -0.662431900684E+02    0.53251E-03   -0.62836E-03   440   0.540E-01    0.133E-01
DAV:   5    -0.662433662157E+02   -0.17615E-03   -0.16499E-03   448   0.237E-01    0.419E-02
DAV:   6    -0.662436543297E+02   -0.28811E-03   -0.22266E-04   336   0.111E-01    0.219E-02
DAV:   7    -0.662441301637E+02   -0.47583E-03   -0.29364E-04   360   0.889E-02    0.169E-02
DAV:   8    -0.662443805411E+02   -0.25038E-03   -0.79279E-05   296   0.562E-02    0.786E-03
DAV:   9    -0.662445731251E+02   -0.19258E-03   -0.13962E-04   336   0.441E-02    0.723E-03
DAV:  10    -0.662445997536E+02   -0.26629E-04   -0.20759E-05   344   0.285E-02
  42 F= -.66244600E+02 E0= -.66244599E+02  d E =-.282077E-01
 curvature:   8.60 expect dE= 0.228E+01 dE for cont linesearch  0.456E-01
 ZBRENT: bracketing found
 ZBRENT: interpolating
 opt :   0.2375  next Energy=   -66.257803 (dE=-0.414E-01)
 bond charge predicted
       N       E                     dE             d eps       ncg     rms          rms(c)
DAV:   1    -0.662564378569E+02   -0.11865E-01   -0.18305E+01   384   0.251E+01    0.968E-01
DAV:   2    -0.662688604359E+02   -0.12423E-01   -0.41753E-01   464   0.365E+00    0.560E-01
DAV:   3    -0.662580710385E+02    0.10789E-01   -0.49524E-02   512   0.133E+00    0.172E-01
DAV:   4    -0.662574548485E+02    0.61619E-03   -0.31307E-03   480   0.400E-01    0.914E-02
DAV:   5    -0.662571632899E+02    0.29156E-03   -0.92268E-04   480   0.182E-01    0.290E-02
DAV:   6    -0.662571807254E+02   -0.17436E-04   -0.10495E-04   352   0.722E-02
  43 F= -.66257181E+02 E0= -.66257180E+02  d E =-.407886E-01
 curvature:  -0.62 expect dE=-0.914E-01 dE for cont linesearch -0.127E-04
 trial: gam= 0.05811 g(F)=  0.133E+00 g(S)=  0.135E-01 ort =-0.120E-01 (trialstep = 0.610E-01)
 search vector abs. value=  0.169E+00
 bond charge predicted
       N       E                     dE             d eps       ncg     rms          rms(c)
DAV:   1    -0.662651384996E+02   -0.79752E-02   -0.81079E-02   424   0.197E+00    0.905E-02
DAV:   2    -0.662651647880E+02   -0.26288E-04   -0.21141E-03   480   0.324E-01    0.566E-02
DAV:   3    -0.662651779270E+02   -0.13139E-04   -0.29472E-04   384   0.109E-01
  44 F= -.66265178E+02 E0= -.66265178E+02  d E =-.799720E-02
 trial-energy change:   -0.007997  1 .order   -0.007729   -0.008895   -0.006563
 step:   0.2329(harm=  0.2329)  dis= 0.00641  next Energy=   -66.274148 (dE=-0.170E-01)
 bond charge predicted
       N       E                     dE             d eps       ncg     rms          rms(c)
DAV:   1    -0.662756284116E+02   -0.10464E-01   -0.64075E-01   384   0.554E+00    0.258E-01
DAV:   2    -0.662752218295E+02    0.40658E-03   -0.16924E-02   496   0.911E-01    0.163E-01
DAV:   3    -0.662747418955E+02    0.47993E-03   -0.23337E-03   456   0.303E-01    0.790E-02
DAV:   4    -0.662747306791E+02    0.11216E-04   -0.35340E-04   424   0.113E-01
  45 F= -.66274731E+02 E0= -.66274730E+02  d E =-.175500E-01
 curvature:  -0.13 expect dE=-0.125E-01 dE for cont linesearch -0.654E-05
 trial: gam= 0.61690 g(F)=  0.770E-01 g(S)=  0.156E-01 ort = 0.286E-02 (trialstep = 0.954E-01)
 search vector abs. value=  0.160E+00
 bond charge predicted
       N       E                     dE             d eps       ncg     rms          rms(c)
DAV:   1    -0.662826814115E+02   -0.79395E-02   -0.12865E-01   392   0.254E+00    0.123E-01
DAV:   2    -0.662824811450E+02    0.20027E-03   -0.31748E-03   488   0.400E-01    0.777E-02
DAV:   3    -0.662823827190E+02    0.98426E-04   -0.10019E-03   464   0.206E-01    0.286E-02
DAV:   4    -0.662823799723E+02    0.27467E-05   -0.16020E-04   376   0.834E-02
  46 F= -.66282380E+02 E0= -.66282379E+02  d E =-.764929E-02
 trial-energy change:   -0.007649  1 .order   -0.007612   -0.009004   -0.006221
 step:   0.3087(harm=  0.3087)  dis= 0.01126  next Energy=   -66.289298 (dE=-0.146E-01)
 bond charge predicted
       N       E                     dE             d eps       ncg     rms          rms(c)
DAV:   1    -0.662912132013E+02   -0.88305E-02   -0.64651E-01   400   0.568E+00    0.274E-01
DAV:   2    -0.662901933598E+02    0.10198E-02   -0.15769E-02   504   0.898E-01    0.174E-01
DAV:   3    -0.662896436637E+02    0.54970E-03   -0.52550E-03   480   0.472E-01    0.644E-02
DAV:   4    -0.662896047967E+02    0.38867E-04   -0.91024E-04   480   0.190E-01
  47 F= -.66289605E+02 E0= -.66289605E+02  d E =-.148741E-01
 curvature:  -0.26 expect dE=-0.201E-01 dE for cont linesearch -0.295E-05
 trial: gam= 0.85514 g(F)=  0.758E-01 g(S)=  0.692E-03 ort = 0.134E-02 (trialstep = 0.113E+00)
 search vector abs. value=  0.196E+00
 bond charge predicted
       N       E                     dE             d eps       ncg     rms          rms(c)
DAV:   1    -0.662973287886E+02   -0.76851E-02   -0.20965E-01   408   0.322E+00    0.125E-01
DAV:   2    -0.662972808076E+02    0.47981E-04   -0.40318E-03   504   0.439E-01    0.731E-02
DAV:   3    -0.662971960726E+02    0.84735E-04   -0.56458E-04   480   0.153E-01
  48 F= -.66297196E+02 E0= -.66297196E+02  d E =-.759128E-02
 trial-energy change:   -0.007591  1 .order   -0.007591   -0.008765   -0.006417
 step:   0.4216(harm=  0.4216)  dis= 0.01866  next Energy=   -66.305963 (dE=-0.164E-01)
 bond charge predicted
       N       E                     dE             d eps       ncg     rms          rms(c)
DAV:   1    -0.663071936559E+02   -0.99128E-02   -0.15657E+00   384   0.877E+00    0.347E-01
DAV:   2    -0.663068826960E+02    0.31096E-03   -0.29798E-02   504   0.120E+00    0.205E-01
DAV:   3    -0.663062117685E+02    0.67093E-03   -0.41938E-03   496   0.419E-01    0.820E-02
DAV:   4    -0.663061897001E+02    0.22068E-04   -0.60579E-04   448   0.154E-01
  49 F= -.66306190E+02 E0= -.66306189E+02  d E =-.165849E-01
 curvature:  -0.53 expect dE=-0.883E-02 dE for cont linesearch -0.148E-04
 trial: gam= 0.21440 g(F)=  0.110E-01 g(S)=  0.561E-02 ort = 0.234E-02 (trialstep = 0.175E+00)
 search vector abs. value=  0.266E-01
 bond charge predicted
       N       E                     dE             d eps       ncg     rms          rms(c)
DAV:   1    -0.663086541762E+02   -0.24424E-02   -0.94010E-02   416   0.208E+00    0.828E-02
DAV:   2    -0.663086555121E+02   -0.13360E-05   -0.20632E-03   504   0.323E-01    0.498E-02
DAV:   3    -0.663086176659E+02    0.37846E-04   -0.28662E-04   384   0.113E-01
  50 F= -.66308618E+02 E0= -.66308617E+02  d E =-.242797E-02
 trial-energy change:   -0.002428  1 .order   -0.002347   -0.002984   -0.001709
 step:   0.4089(harm=  0.4089)  dis= 0.00455  next Energy=   -66.309682 (dE=-0.349E-02)
 bond charge predicted
       N       E                     dE             d eps       ncg     rms          rms(c)
DAV:   1    -0.663100163283E+02   -0.13608E-02   -0.17010E-01   400   0.279E+00    0.114E-01
DAV:   2    -0.663099715398E+02    0.44788E-04   -0.36460E-03   504   0.428E-01    0.694E-02
DAV:   3    -0.663098666763E+02    0.10486E-03   -0.56831E-04   472   0.158E-01    0.239E-02
DAV:   4    -0.663098729579E+02   -0.62815E-05   -0.74310E-05   296   0.561E-02
  51 F= -.66309873E+02 E0= -.66309873E+02  d E =-.368326E-02
 curvature:  -0.32 expect dE=-0.782E-02 dE for cont linesearch -0.146E-05
 trial: gam= 1.48346 g(F)=  0.234E-01 g(S)=  0.119E-02 ort = 0.350E-03 (trialstep = 0.700E-01)
 search vector abs. value=  0.841E-01
 bond charge predicted
       N       E                     dE             d eps       ncg     rms          rms(c)
DAV:   1    -0.663114829502E+02   -0.16163E-02   -0.49286E-02   400   0.146E+00    0.575E-02
DAV:   2    -0.663114875247E+02   -0.45745E-05   -0.98930E-04   512   0.226E-01
  52 F= -.66311488E+02 E0= -.66311487E+02  d E =-.161457E-02
 ZBRENT: can't locate minimum, use default step
 trial-energy change:   -0.001615  1 .order   -0.001592   -0.001757   -0.001426
 step:   0.2801(harm=  0.3713)  dis= 0.00573  next Energy=   -66.314533 (dE=-0.466E-02)
 bond charge predicted
       N       E                     dE             d eps       ncg     rms          rms(c)
DAV:   1    -0.663140279391E+02   -0.25450E-02   -0.43921E-01   384   0.436E+00    0.176E-01
DAV:   2    -0.663140341513E+02   -0.62122E-05   -0.84709E-03   528   0.661E-01    0.109E-01
DAV:   3    -0.663137795617E+02    0.25459E-03   -0.15581E-03   512   0.266E-01    0.352E-02
DAV:   4    -0.663137693912E+02    0.10170E-04   -0.22249E-04   368   0.978E-02
  53 F= -.66313769E+02 E0= -.66313769E+02  d E =-.389643E-02
 curvature:  -0.57 expect dE=-0.916E-02 dE for cont linesearch -0.300E-04
 trial: gam= 0.58666 g(F)=  0.133E-01 g(S)=  0.290E-02 ort = 0.211E-02 (trialstep = 0.112E+00)
 search vector abs. value=  0.476E-01
 bond charge predicted
       N       E                     dE             d eps       ncg     rms          rms(c)
DAV:   1    -0.663155596698E+02   -0.17801E-02   -0.77611E-02   384   0.179E+00    0.498E-02
DAV:   2    -0.663156214246E+02   -0.61755E-04   -0.12553E-03   480   0.228E-01    0.324E-02
DAV:   3    -0.663155988524E+02    0.22572E-04   -0.93115E-05   368   0.667E-02
  54 F= -.66315599E+02 E0= -.66315599E+02  d E =-.182946E-02
 ZBRENT: can't locate minimum, use default step
 trial-energy change:   -0.001829  1 .order   -0.001809   -0.001955   -0.001664
 step:   0.4481(harm=  0.7531)  dis= 0.00756  next Energy=   -66.320340 (dE=-0.657E-02)
 bond charge predicted
       N       E                     dE             d eps       ncg     rms          rms(c)
DAV:   1    -0.663192562029E+02   -0.36348E-02   -0.70038E-01   384   0.537E+00    0.151E-01
DAV:   2    -0.663198180422E+02   -0.56184E-03   -0.11402E-02   480   0.691E-01    0.978E-02
DAV:   3    -0.663195740655E+02    0.24398E-03   -0.96081E-04   472   0.203E-01    0.360E-02
DAV:   4    -0.663195709655E+02    0.31000E-05   -0.10860E-04   344   0.705E-02
  55 F= -.66319571E+02 E0= -.66319571E+02  d E =-.580157E-02
 curvature:  -0.80 expect dE=-0.585E-02 dE for cont linesearch -0.126E-02
 ZBRENT: increasing intervall
 opt :   1.1203  next Energy=   -66.321283 (dE=-0.751E-02)
 bond charge predicted
       N       E                     dE             d eps       ncg     rms          rms(c)
DAV:   1    -0.663196821034E+02   -0.10804E-03   -0.27996E+00   384   0.108E+01    0.300E-01
DAV:   2    -0.663219839028E+02   -0.23018E-02   -0.46122E-02   480   0.139E+00    0.194E-01
DAV:   3    -0.663210847900E+02    0.89911E-03   -0.38111E-03   488   0.406E-01    0.731E-02
DAV:   4    -0.663210641109E+02    0.20679E-04   -0.46923E-04   440   0.141E-01
  56 F= -.66321064E+02 E0= -.66321064E+02  d E =-.729472E-02
 curvature:  -1.08 expect dE=-0.364E-01 dE for cont linesearch -0.327E-03
 trial: gam= 0.00000 g(F)=  0.274E-01 g(S)=  0.639E-02 ort =-0.380E-02 (trialstep = 0.314E+00)
 search vector abs. value=  0.338E-01
 bond charge predicted
       N       E                     dE             d eps       ncg     rms          rms(c)
DAV:   1    -0.663263977241E+02   -0.53129E-02   -0.32799E-01   384   0.414E+00    0.217E-01
DAV:   2    -0.663261144763E+02    0.28325E-03   -0.79398E-03   480   0.670E-01    0.126E-01
DAV:   3    -0.663259360209E+02    0.17846E-03   -0.21838E-03   456   0.320E-01    0.442E-02
DAV:   4    -0.663259263512E+02    0.96696E-05   -0.37538E-04   440   0.118E-01
  57 F= -.66325926E+02 E0= -.66325926E+02  d E =-.486224E-02
 trial-energy change:   -0.004862  1 .order   -0.004565   -0.010597    0.001467
 step:   0.2755(harm=  0.2755)  dis= 0.00578  next Energy=   -66.325718 (dE=-0.465E-02)
 bond charge predicted
       N       E                     dE             d eps       ncg     rms          rms(c)
DAV:   1    -0.663260395912E+02   -0.10357E-03   -0.47911E-03   432   0.506E-01    0.287E-02
DAV:   2    -0.663260391946E+02    0.39667E-06   -0.10655E-04   344   0.839E-02
  58 F= -.66326039E+02 E0= -.66326039E+02  d E =-.497508E-02
 curvature:  -0.14 expect dE=-0.103E-02 dE for cont linesearch -0.116E-06
 trial: gam= 0.21576 g(F)=  0.656E-02 g(S)=  0.901E-03 ort = 0.169E-03 (trialstep = 0.306E+00)
 search vector abs. value=  0.910E-02
 bond charge predicted
       N       E                     dE             d eps       ncg     rms          rms(c)
DAV:   1    -0.663271933147E+02   -0.11537E-02   -0.11982E-01   384   0.232E+00    0.122E-01
DAV:   2    -0.663270280766E+02    0.16524E-03   -0.30705E-03   544   0.368E-01    0.694E-02
DAV:   3    -0.663269046960E+02    0.12338E-03   -0.57435E-04   448   0.147E-01    0.232E-02
DAV:   4    -0.663269141442E+02   -0.94482E-05   -0.41851E-05   288   0.434E-02
  59 F= -.66326914E+02 E0= -.66326914E+02  d E =-.874950E-03
 trial-energy change:   -0.000875  1 .order   -0.000853   -0.002294    0.000587
 step:   0.2437(harm=  0.2437)  dis= 0.00173  next Energy=   -66.326952 (dE=-0.913E-03)
 bond charge predicted
       N       E                     dE             d eps       ncg     rms          rms(c)
DAV:   1    -0.663269971484E+02   -0.92452E-04   -0.50005E-03   432   0.473E-01    0.244E-02
DAV:   2    -0.663269967305E+02    0.41794E-06   -0.11318E-04   328   0.756E-02
  60 F= -.66326997E+02 E0= -.66326996E+02  d E =-.957536E-03
 curvature:  -0.15 expect dE=-0.113E-02 dE for cont linesearch -0.141E-05
 trial: gam= 1.07536 g(F)=  0.697E-02 g(S)=  0.688E-03 ort =-0.295E-03 (trialstep = 0.152E+00)
 search vector abs. value=  0.176E-01
 reached required accuracy - stopping structural energy minimisation
 writing wavefunctions
Sun Mar  6 20:20:35 CST 2022
