Sun Mar  6 19:51:00 CST 2022
 running on   48 total cores
 distrk:  each k-point on   48 cores,    1 groups
 distr:  one band on   24 cores,    2 groups
 using from now: INCAR     
 vasp.5.3.5 31Mar14 (build Jan 11 2016 19:50:55) complex                        
  
 POSCAR found type information on POSCAR  B  C  Na
 POSCAR found :  3 types and       9 ions
 scaLAPACK will be used

 ----------------------------------------------------------------------------- 
|                                                                             |
|           W    W    AA    RRRRR   N    N  II  N    N   GGGG   !!!           |
|           W    W   A  A   R    R  NN   N  II  NN   N  G    G  !!!           |
|           W    W  A    A  R    R  N N  N  II  N N  N  G       !!!           |
|           W WW W  AAAAAA  RRRRR   N  N N  II  N  N N  G  GGG   !            |
|           WW  WW  A    A  R   R   N   NN  II  N   NN  G    G                |
|           W    W  A    A  R    R  N    N  II  N    N   GGGG   !!!           |
|                                                                             |
|      For optimal performance we recommend to set                            |
|        NCORE= 4 - approx SQRT( number of cores)                             |
|      NCORE specifies how many cores store one orbital (NPAR=cpu/NCORE).     |
|      This setting can  greatly improve the performance of VASP for DFT.     |
|      The default, NPAR=number of cores might be grossly inefficient         |
|      on modern multi-core architectures or massively parallel machines.     |
|      Do your own testing !!!!                                               |
|      Unfortunately you need to use the default for GW and RPA calculations. |
|      (for HF NCORE is supported but not extensively tested yet)             |
|                                                                             |
 ----------------------------------------------------------------------------- 

 LDA part: xc-table for Pade appr. of Perdew
 POSCAR, INCAR and KPOINTS ok, starting setup
 WARNING: small aliasing (wrap around) errors must be expected
 FFT: planning ...
 WAVECAR not read
 entering main loop
       N       E                     dE             d eps       ncg     rms          rms(c)
DAV:   1     0.269026355888E+03    0.26903E+03   -0.11660E+04   472   0.828E+02
DAV:   2    -0.130229065302E+01   -0.27033E+03   -0.26098E+03   568   0.225E+02
DAV:   3    -0.645128980979E+02   -0.63211E+02   -0.62955E+02   464   0.108E+02
DAV:   4    -0.679323145641E+02   -0.34194E+01   -0.33988E+01   560   0.333E+01
DAV:   5    -0.680102798070E+02   -0.77965E-01   -0.77783E-01   480   0.467E+00    0.131E+01
DAV:   6    -0.614521932473E+02    0.65581E+01   -0.14507E+01   464   0.241E+01    0.689E+00
DAV:   7    -0.597525885691E+02    0.16996E+01   -0.47167E+00   608   0.125E+01    0.324E+00
DAV:   8    -0.594008845195E+02    0.35170E+00   -0.10800E+00   552   0.499E+00    0.135E+00
DAV:   9    -0.592886490881E+02    0.11224E+00   -0.13724E-01   528   0.195E+00    0.496E-01
DAV:  10    -0.592469329722E+02    0.41716E-01   -0.34362E-02   568   0.926E-01    0.279E-01
DAV:  11    -0.592249239950E+02    0.22009E-01   -0.21198E-02   576   0.610E-01    0.175E-01
DAV:  12    -0.592217747041E+02    0.31493E-02   -0.95923E-03   480   0.384E-01    0.104E-01
DAV:  13    -0.592247799366E+02   -0.30052E-02   -0.21275E-03   448   0.206E-01    0.600E-02
DAV:  14    -0.592287719013E+02   -0.39920E-02   -0.18892E-03   384   0.144E-01    0.387E-02
DAV:  15    -0.592321897676E+02   -0.34179E-02   -0.14077E-03   352   0.103E-01    0.223E-02
DAV:  16    -0.592340294826E+02   -0.18397E-02   -0.56032E-04   336   0.749E-02    0.130E-02
DAV:  17    -0.592348535171E+02   -0.82403E-03   -0.23987E-04   288   0.480E-02    0.981E-03
DAV:  18    -0.592351522224E+02   -0.29871E-03   -0.85331E-05   304   0.384E-02    0.525E-03
DAV:  19    -0.592353613183E+02   -0.20910E-03   -0.47536E-05   272   0.233E-02    0.291E-03
DAV:  20    -0.592354426074E+02   -0.81289E-04   -0.20621E-05   288   0.156E-02
   1 F= -.59235443E+02 E0= -.59217253E+02  d E =-.592354E+02
 curvature:   0.00 expect dE= 0.000E+00 dE for cont linesearch  0.000E+00
 trial: gam= 0.00000 g(F)=  0.117E+01 g(S)=  0.266E+00 ort = 0.000E+00 (trialstep = 0.100E+01)
 search vector abs. value=  0.143E+01
 bond charge predicted
       N       E                     dE             d eps       ncg     rms          rms(c)
DAV:   1    -0.588375361778E+02    0.39783E+00   -0.18565E+02   400   0.109E+02    0.414E+00
DAV:   2    -0.591252703308E+02   -0.28773E+00   -0.61665E+00   496   0.167E+01    0.240E+00
DAV:   3    -0.590285824771E+02    0.96688E-01   -0.29710E-01   576   0.358E+00    0.140E+00
DAV:   4    -0.589950751269E+02    0.33507E-01   -0.90206E-02   528   0.201E+00    0.282E-01
DAV:   5    -0.589940614680E+02    0.10137E-02   -0.11805E-02   512   0.671E-01    0.114E-01
DAV:   6    -0.589938980572E+02    0.16341E-03   -0.10359E-03   512   0.203E-01    0.616E-02
DAV:   7    -0.589939417546E+02   -0.43697E-04   -0.26650E-04   352   0.101E-01
   2 F= -.58993942E+02 E0= -.58974511E+02  d E =0.241501E+00
 trial-energy change:    0.241501  1 .order    0.175724   -1.434068    1.785517
 step:   0.4156(harm=  0.4454)  dis= 0.05684  next Energy=   -59.528753 (dE=-0.293E+00)
 bond charge predicted
       N       E                     dE             d eps       ncg     rms          rms(c)
DAV:   1    -0.595599784249E+02   -0.56608E+00   -0.56459E+01   384   0.503E+01    0.253E+00
DAV:   2    -0.595732540153E+02   -0.13276E-01   -0.16528E+00   576   0.831E+00    0.138E+00
DAV:   3    -0.595354267062E+02    0.37827E-01   -0.10875E-01   560   0.237E+00    0.577E-01
DAV:   4    -0.595316374710E+02    0.37892E-02   -0.22141E-02   576   0.922E-01    0.198E-01
DAV:   5    -0.595314879318E+02    0.14954E-03   -0.16459E-03   528   0.282E-01    0.861E-02
DAV:   6    -0.595315480185E+02   -0.60087E-04   -0.25147E-04   368   0.997E-02
   3 F= -.59531548E+02 E0= -.59519005E+02  d E =-.296105E+00
 curvature:  -0.22 expect dE=-0.198E+00 dE for cont linesearch -0.124E-03
 trial: gam= 0.64003 g(F)=  0.856E+00 g(S)=  0.331E-01 ort =-0.283E-01 (trialstep = 0.879E+00)
 search vector abs. value=  0.144E+01
 bond charge predicted
       N       E                     dE             d eps       ncg     rms          rms(c)
DAV:   1    -0.594885672937E+02    0.42921E-01   -0.16518E+02   448   0.951E+01    0.370E+00
DAV:   2    -0.595760213663E+02   -0.87454E-01   -0.39769E+00   496   0.144E+01    0.194E+00
DAV:   3    -0.594886142858E+02    0.87407E-01   -0.29652E-01   480   0.342E+00    0.104E+00
DAV:   4    -0.594699703280E+02    0.18644E-01   -0.65372E-02   496   0.144E+00    0.387E-01
DAV:   5    -0.594682254823E+02    0.17448E-02   -0.94587E-03   496   0.548E-01    0.144E-01
DAV:   6    -0.594681876712E+02    0.37811E-04   -0.12064E-03   512   0.195E-01    0.494E-02
DAV:   7    -0.594683676760E+02   -0.18000E-03   -0.16560E-04   384   0.755E-02    0.220E-02
DAV:   8    -0.594685887902E+02   -0.22111E-03   -0.11836E-04   360   0.522E-02    0.120E-02
DAV:   9    -0.594688341899E+02   -0.24540E-03   -0.64636E-05   360   0.365E-02    0.605E-03
DAV:  10    -0.594690223791E+02   -0.18819E-03   -0.61272E-05   352   0.265E-02    0.399E-03
DAV:  11    -0.594691196412E+02   -0.97262E-04   -0.14441E-05   320   0.169E-02
   4 F= -.59469120E+02 E0= -.59442517E+02  d E =0.624284E-01
 trial-energy change:    0.062428  1 .order    0.031790   -0.766016    0.829595
 step:   0.3969(harm=  0.4220)  dis= 0.06031  next Energy=   -59.701672 (dE=-0.170E+00)
 bond charge predicted
       N       E                     dE             d eps       ncg     rms          rms(c)
DAV:   1    -0.597220119607E+02   -0.25299E+00   -0.44290E+01   384   0.439E+01    0.200E+00
DAV:   2    -0.597264841873E+02   -0.44722E-02   -0.11955E+00   512   0.704E+00    0.106E+00
DAV:   3    -0.597042184046E+02    0.22266E-01   -0.95903E-02   544   0.204E+00    0.546E-01
DAV:   4    -0.597016990344E+02    0.25194E-02   -0.12500E-02   496   0.644E-01    0.224E-01
DAV:   5    -0.597014931677E+02    0.20587E-03   -0.15882E-03   512   0.237E-01    0.643E-02
DAV:   6    -0.597017333487E+02   -0.24018E-03   -0.32584E-04   480   0.101E-01    0.268E-02
DAV:   7    -0.597019992560E+02   -0.26591E-03   -0.69707E-05   384   0.444E-02    0.106E-02
DAV:   8    -0.597021630623E+02   -0.16381E-03   -0.26220E-05   384   0.255E-02    0.661E-03
DAV:   9    -0.597024271862E+02   -0.26412E-03   -0.97808E-05   320   0.326E-02    0.423E-03
DAV:  10    -0.597024860067E+02   -0.58820E-04   -0.13437E-05   368   0.149E-02
   5 F= -.59702486E+02 E0= -.59683296E+02  d E =-.170938E+00
 curvature:  -0.35 expect dE=-0.462E-01 dE for cont linesearch -0.393E-04
 trial: gam= 0.22264 g(F)=  0.100E+00 g(S)=  0.329E-01 ort =-0.128E-01 (trialstep = 0.783E+00)
 search vector abs. value=  0.199E+00
 bond charge predicted
       N       E                     dE             d eps       ncg     rms          rms(c)
DAV:   1    -0.597368052159E+02   -0.34378E-01   -0.15784E+01   384   0.258E+01    0.101E+00
DAV:   2    -0.597479259799E+02   -0.11121E-01   -0.37664E-01   496   0.387E+00    0.543E-01
DAV:   3    -0.597434045710E+02    0.45214E-02   -0.24806E-02   544   0.110E+00    0.256E-01
DAV:   4    -0.597429017206E+02    0.50285E-03   -0.32861E-03   512   0.355E-01    0.912E-02
DAV:   5    -0.597429460179E+02   -0.44297E-04   -0.33164E-04   480   0.113E-01
   6 F= -.59742946E+02 E0= -.59720096E+02  d E =-.404600E-01
 trial-energy change:   -0.040460  1 .order   -0.041339   -0.101822    0.019144
 step:   0.6540(harm=  0.6587)  dis= 0.03674  next Energy=   -59.744522 (dE=-0.420E-01)
 bond charge predicted
       N       E                     dE             d eps       ncg     rms          rms(c)
DAV:   1    -0.597444772707E+02   -0.15756E-02   -0.41931E-01   384   0.415E+00    0.158E-01
DAV:   2    -0.597446343534E+02   -0.15708E-03   -0.90205E-03   512   0.619E-01    0.895E-02
DAV:   3    -0.597445773602E+02    0.56993E-04   -0.67349E-04   552   0.173E-01
   7 F= -.59744577E+02 E0= -.59722565E+02  d E =-.420914E-01
 curvature:  -0.50 expect dE=-0.351E-01 dE for cont linesearch -0.691E-07
 trial: gam= 0.61476 g(F)=  0.616E-01 g(S)=  0.819E-02 ort =-0.165E-03 (trialstep = 0.757E+00)
 search vector abs. value=  0.145E+00
 bond charge predicted
       N       E                     dE             d eps       ncg     rms          rms(c)
DAV:   1    -0.597444145650E+02    0.21979E-03   -0.11157E+01   384   0.218E+01    0.815E-01
DAV:   2    -0.597513049148E+02   -0.68903E-02   -0.27387E-01   496   0.330E+00    0.484E-01
DAV:   3    -0.597480036858E+02    0.33012E-02   -0.19844E-02   560   0.917E-01    0.323E-01
DAV:   4    -0.597474537244E+02    0.54996E-03   -0.30136E-03   512   0.309E-01    0.170E-01
DAV:   5    -0.597474405691E+02    0.13155E-04   -0.77390E-04   496   0.160E-01
   8 F= -.59747441E+02 E0= -.59721625E+02  d E =-.286321E-02
 trial-energy change:   -0.002863  1 .order   -0.004499   -0.052766    0.043768
 step:   0.3945(harm=  0.4137)  dis= 0.01672  next Energy=   -59.758097 (dE=-0.135E-01)
 bond charge predicted
       N       E                     dE             d eps       ncg     rms          rms(c)
DAV:   1    -0.597571538631E+02   -0.97001E-02   -0.25418E+00   384   0.103E+01    0.370E-01
DAV:   2    -0.597590967337E+02   -0.19429E-02   -0.60549E-02   480   0.157E+00    0.224E-01
DAV:   3    -0.597582969323E+02    0.79980E-03   -0.46959E-03   624   0.445E-01    0.127E-01
DAV:   4    -0.597582621615E+02    0.34771E-04   -0.59919E-04   496   0.144E-01
   9 F= -.59758262E+02 E0= -.59734242E+02  d E =-.136848E-01
 curvature:  -0.43 expect dE=-0.204E-01 dE for cont linesearch -0.233E-06
 trial: gam= 0.72399 g(F)=  0.357E-01 g(S)=  0.120E-01 ort =-0.281E-03 (trialstep = 0.684E+00)
 search vector abs. value=  0.123E+00
 bond charge predicted
       N       E                     dE             d eps       ncg     rms          rms(c)
DAV:   1    -0.597770451361E+02   -0.18748E-01   -0.74077E+00   384   0.177E+01    0.758E-01
DAV:   2    -0.597735781131E+02    0.34670E-02   -0.19834E-01   480   0.263E+00    0.428E-01
DAV:   3    -0.597704155645E+02    0.31625E-02   -0.12767E-02   528   0.741E-01    0.243E-01
DAV:   4    -0.597695381164E+02    0.87745E-03   -0.34763E-03   576   0.401E-01    0.776E-02
DAV:   5    -0.597695393894E+02   -0.12730E-05   -0.47725E-04   512   0.134E-01
  10 F= -.59769539E+02 E0= -.59744965E+02  d E =-.112772E-01
 trial-energy change:   -0.011277  1 .order   -0.011359   -0.032507    0.009790
 step:   0.5260(harm=  0.5260)  dis= 0.01816  next Energy=   -59.770754 (dE=-0.125E-01)
 bond charge predicted
       N       E                     dE             d eps       ncg     rms          rms(c)
DAV:   1    -0.597709736857E+02   -0.14356E-02   -0.39711E-01   384   0.412E+00    0.166E-01
DAV:   2    -0.597709002509E+02    0.73435E-04   -0.99364E-03   464   0.597E-01    0.942E-02
DAV:   3    -0.597707824049E+02    0.11785E-03   -0.58754E-04   416   0.168E-01    0.509E-02
DAV:   4    -0.597707801850E+02    0.22199E-05   -0.19739E-04   336   0.103E-01
  11 F= -.59770780E+02 E0= -.59746280E+02  d E =-.125180E-01
 curvature:  -0.68 expect dE=-0.555E-01 dE for cont linesearch -0.471E-05
 trial: gam= 1.71830 g(F)=  0.693E-01 g(S)=  0.121E-01 ort = 0.922E-03 (trialstep = 0.179E+00)
 search vector abs. value=  0.448E+00
 bond charge predicted
       N       E                     dE             d eps       ncg     rms          rms(c)
DAV:   1    -0.597894619457E+02   -0.18680E-01   -0.17330E+00   384   0.842E+00    0.437E-01
DAV:   2    -0.597853841776E+02    0.40778E-02   -0.55371E-02   464   0.125E+00    0.235E-01
DAV:   3    -0.597842840633E+02    0.11001E-02   -0.35680E-03   480   0.378E-01    0.127E-01
DAV:   4    -0.597839606444E+02    0.32342E-03   -0.13584E-03   528   0.257E-01    0.344E-02
DAV:   5    -0.597839624901E+02   -0.18457E-05   -0.15023E-04   432   0.856E-02
  12 F= -.59783962E+02 E0= -.59759563E+02  d E =-.131823E-01
 ZBRENT: can't locate minimum, use default step
 trial-energy change:   -0.013182  1 .order   -0.013359   -0.014891   -0.011828
 step:   0.7173(harm=  0.8718)  dis= 0.04275  next Energy=   -59.806975 (dE=-0.362E-01)
 bond charge predicted
       N       E                     dE             d eps       ncg     rms          rms(c)
DAV:   1    -0.598608927477E+02   -0.76932E-01   -0.15668E+01   384   0.253E+01    0.138E+00
DAV:   2    -0.598241064201E+02    0.36786E-01   -0.57064E-01   464   0.389E+00    0.746E-01
DAV:   3    -0.598116736132E+02    0.12433E-01   -0.38190E-02   496   0.121E+00    0.407E-01
DAV:   4    -0.598084013707E+02    0.32722E-02   -0.12399E-02   512   0.752E-01    0.119E-01
DAV:   5    -0.598083620316E+02    0.39339E-04   -0.16782E-03   528   0.259E-01    0.546E-02
DAV:   6    -0.598084851761E+02   -0.12314E-03   -0.23607E-04   464   0.939E-02    0.219E-02
DAV:   7    -0.598085938304E+02   -0.10865E-03   -0.37444E-05   376   0.381E-02    0.977E-03
DAV:   8    -0.598087294495E+02   -0.13562E-03   -0.35357E-05   328   0.298E-02    0.537E-03
DAV:   9    -0.598088400976E+02   -0.11065E-03   -0.20004E-05   352   0.217E-02    0.313E-03
DAV:  10    -0.598089308837E+02   -0.90786E-04   -0.18386E-05   312   0.154E-02
  13 F= -.59808931E+02 E0= -.59784540E+02  d E =-.381507E-01
 curvature:  -2.24 expect dE=-0.124E+00 dE for cont linesearch -0.343E-02
 ZBRENT: increasing intervall
 opt :   1.7933  next Energy=   -59.794391 (dE=-0.236E-01)
 bond charge predicted
       N       E                     dE             d eps       ncg     rms          rms(c)
DAV:   1    -0.599997521830E+02   -0.19091E+00   -0.63475E+01   384   0.516E+01    0.296E+00
DAV:   2    -0.598641301941E+02    0.13562E+00   -0.26680E+00   464   0.854E+00    0.153E+00
DAV:   3    -0.598127308539E+02    0.51399E-01   -0.16751E-01   496   0.257E+00    0.853E-01
DAV:   4    -0.597990537807E+02    0.13677E-01   -0.48045E-02   496   0.136E+00    0.289E-01
DAV:   5    -0.597983451399E+02    0.70864E-03   -0.80867E-03   496   0.505E-01    0.116E-01
DAV:   6    -0.597985500521E+02   -0.20491E-03   -0.99094E-04   528   0.182E-01    0.464E-02
DAV:   7    -0.597988115421E+02   -0.26149E-03   -0.13102E-04   384   0.674E-02    0.195E-02
DAV:   8    -0.597991012588E+02   -0.28972E-03   -0.10724E-04   336   0.518E-02    0.112E-02
DAV:   9    -0.597993804823E+02   -0.27922E-03   -0.73035E-05   352   0.386E-02    0.591E-03
DAV:  10    -0.597995923495E+02   -0.21187E-03   -0.63678E-05   336   0.306E-02    0.411E-03
DAV:  11    -0.597996819944E+02   -0.89645E-04   -0.19680E-05   368   0.186E-02
  14 F= -.59799682E+02 E0= -.59775606E+02  d E =-.289018E-01
 curvature:   9.48 expect dE= 0.275E+01 dE for cont linesearch  0.438E-01
 ZBRENT: bracketing found
 ZBRENT: interpolating
 opt :   1.1107  next Energy=   -59.814088 (dE=-0.433E-01)
 bond charge predicted
       N       E                     dE             d eps       ncg     rms          rms(c)
DAV:   1    -0.598776902465E+02   -0.78098E-01   -0.26002E+01   384   0.341E+01    0.159E+00
DAV:   2    -0.598326297459E+02    0.45061E-01   -0.69208E-01   464   0.505E+00    0.833E-01
DAV:   3    -0.598167956936E+02    0.15834E-01   -0.49483E-02   544   0.141E+00    0.374E-01
DAV:   4    -0.598144132259E+02    0.23825E-02   -0.89801E-03   496   0.653E-01    0.114E-01
DAV:   5    -0.598142718345E+02    0.14139E-03   -0.11170E-03   512   0.213E-01    0.465E-02
DAV:   6    -0.598142930900E+02   -0.21255E-04   -0.24476E-04   368   0.803E-02
  15 F= -.59814293E+02 E0= -.59790202E+02  d E =-.435129E-01
 curvature:  -1.12 expect dE=-0.116E+00 dE for cont linesearch -0.228E-04
 trial: gam= 1.28289 g(F)=  0.864E-01 g(S)=  0.177E-01 ort =-0.302E-02 (trialstep = 0.196E+00)
 search vector abs. value=  0.834E+00
 bond charge predicted
       N       E                     dE             d eps       ncg     rms          rms(c)
DAV:   1    -0.598489258026E+02   -0.34654E-01   -0.36063E+00   384   0.123E+01    0.745E-01
DAV:   2    -0.598364186823E+02    0.12507E-01   -0.13657E-01   464   0.191E+00    0.401E-01
DAV:   3    -0.598330875009E+02    0.33312E-02   -0.11326E-02   448   0.629E-01    0.211E-01
DAV:   4    -0.598323654352E+02    0.72207E-03   -0.33065E-03   480   0.407E-01    0.597E-02
DAV:   5    -0.598323401130E+02    0.25322E-04   -0.44225E-04   480   0.144E-01
  16 F= -.59832340E+02 E0= -.59808177E+02  d E =-.180470E-01
 trial-energy change:   -0.018047  1 .order   -0.017061   -0.019680   -0.014443
 step:   0.3699(harm=  0.7384)  dis= 0.02443  next Energy=   -59.839389 (dE=-0.251E-01)
 bond charge predicted
       N       E                     dE             d eps       ncg     rms          rms(c)
DAV:   1    -0.598567249442E+02   -0.24360E-01   -0.28157E+00   384   0.109E+01    0.659E-01
DAV:   2    -0.598463542812E+02    0.10371E-01   -0.10539E-01   464   0.168E+00    0.353E-01
DAV:   3    -0.598435754383E+02    0.27788E-02   -0.88484E-03   448   0.555E-01    0.187E-01
DAV:   4    -0.598428366846E+02    0.73875E-03   -0.26305E-03   480   0.360E-01    0.540E-02
DAV:   5    -0.598428419799E+02   -0.52953E-05   -0.32785E-04   416   0.127E-01
  17 F= -.59842842E+02 E0= -.59818685E+02  d E =-.285489E-01
 curvature:  -1.65 expect dE=-0.719E-01 dE for cont linesearch -0.436E-02
 ZBRENT: increasing intervall
 opt :   0.7166  next Energy=   -59.849895 (dE=-0.356E-01)
 bond charge predicted
       N       E                     dE             d eps       ncg     rms          rms(c)
DAV:   1    -0.599075484445E+02   -0.64712E-01   -0.11296E+01   384   0.217E+01    0.136E+00
DAV:   2    -0.598655379111E+02    0.42011E-01   -0.45938E-01   480   0.345E+00    0.728E-01
DAV:   3    -0.598530919006E+02    0.12446E-01   -0.37441E-02   456   0.115E+00    0.390E-01
DAV:   4    -0.598497570733E+02    0.33348E-02   -0.10956E-02   528   0.725E-01    0.115E-01
DAV:   5    -0.598497211462E+02    0.35927E-04   -0.15866E-03   496   0.260E-01    0.503E-02
DAV:   6    -0.598498180429E+02   -0.96897E-04   -0.16921E-04   368   0.784E-02
  18 F= -.59849818E+02 E0= -.59825707E+02  d E =-.355250E-01
 curvature:  -2.67 expect dE=-0.254E+00 dE for cont linesearch -0.975E-04
 trial: gam= 1.04573 g(F)=  0.807E-01 g(S)=  0.144E-01 ort =-0.552E-02 (trialstep = 0.252E+00)
 search vector abs. value=  0.996E+00
 bond charge predicted
       N       E                     dE             d eps       ncg     rms          rms(c)
DAV:   1    -0.599096197219E+02   -0.59899E-01   -0.66703E+00   384   0.169E+01    0.114E+00
DAV:   2    -0.598778682474E+02    0.31751E-01   -0.27728E-01   480   0.265E+00    0.623E-01
DAV:   3    -0.598687150615E+02    0.91532E-02   -0.23831E-02   448   0.898E-01    0.323E-01
DAV:   4    -0.598660177441E+02    0.26973E-02   -0.83242E-03   496   0.616E-01    0.930E-02
DAV:   5    -0.598660470341E+02   -0.29290E-04   -0.10851E-03   512   0.225E-01    0.393E-02
DAV:   6    -0.598661614553E+02   -0.11442E-03   -0.12619E-04   368   0.697E-02    0.162E-02
DAV:   7    -0.598663409040E+02   -0.17945E-03   -0.54035E-05   320   0.436E-02    0.776E-03
DAV:   8    -0.598665244052E+02   -0.18350E-03   -0.38965E-05   336   0.290E-02    0.527E-03
DAV:   9    -0.598666890712E+02   -0.16467E-03   -0.39235E-05   320   0.255E-02    0.327E-03
DAV:  10    -0.598667797942E+02   -0.90723E-04   -0.19911E-05   336   0.162E-02
  19 F= -.59866780E+02 E0= -.59843512E+02  d E =-.169618E-01
 trial-energy change:   -0.016962  1 .order   -0.016651   -0.022501   -0.010800
 step:   0.4841(harm=  0.4841)  dis= 0.03472  next Energy=   -59.871453 (dE=-0.216E-01)
 bond charge predicted
       N       E                     dE             d eps       ncg     rms          rms(c)
DAV:   1    -0.599096977520E+02   -0.43009E-01   -0.57260E+00   384   0.157E+01    0.106E+00
DAV:   2    -0.598819325548E+02    0.27765E-01   -0.23360E-01   464   0.245E+00    0.577E-01
DAV:   3    -0.598743462912E+02    0.75863E-02   -0.19836E-02   448   0.836E-01    0.296E-01
DAV:   4    -0.598720932343E+02    0.22531E-02   -0.67729E-03   496   0.557E-01    0.852E-02
DAV:   5    -0.598720514096E+02    0.41825E-04   -0.90362E-04   512   0.206E-01
  20 F= -.59872051E+02 E0= -.59849782E+02  d E =-.222334E-01
 curvature:  -2.70 expect dE=-0.397E+00 dE for cont linesearch -0.810E-04
 trial: gam= 1.35682 g(F)=  0.125E+00 g(S)=  0.220E-01 ort = 0.547E-02 (trialstep = 0.149E+00)
 search vector abs. value=  0.199E+01
 bond charge predicted
       N       E                     dE             d eps       ncg     rms          rms(c)
DAV:   1    -0.599314696028E+02   -0.59376E-01   -0.46044E+00   384   0.141E+01    0.103E+00
DAV:   2    -0.599013306592E+02    0.30139E-01   -0.21327E-01   464   0.228E+00    0.555E-01
DAV:   3    -0.598938770894E+02    0.74536E-02   -0.17696E-02   432   0.776E-01    0.294E-01
DAV:   4    -0.598916692539E+02    0.22078E-02   -0.62891E-03   512   0.519E-01    0.957E-02
DAV:   5    -0.598916796278E+02   -0.10374E-04   -0.88036E-04   512   0.192E-01
  21 F= -.59891680E+02 E0= -.59870295E+02  d E =-.196282E-01
 ZBRENT: can't locate minimum, use default step
 trial-energy change:   -0.019628  1 .order   -0.020548   -0.023001   -0.018096
 step:   0.5953(harm=  0.6979)  dis= 0.06112  next Energy=   -59.925980 (dE=-0.539E-01)
 bond charge predicted
       N       E                     dE             d eps       ncg     rms          rms(c)
DAV:   1    -0.602925305962E+02   -0.40086E+00   -0.41817E+01   384   0.421E+01    0.326E+00
DAV:   2    -0.600092708681E+02    0.28326E+00   -0.21748E+00   496   0.721E+00    0.170E+00
DAV:   3    -0.599409352902E+02    0.68336E-01   -0.16251E-01   440   0.252E+00    0.930E-01
DAV:   4    -0.599211799714E+02    0.19755E-01   -0.55433E-02   512   0.150E+00    0.326E-01
DAV:   5    -0.599200290312E+02    0.11509E-02   -0.93593E-03   496   0.550E-01    0.115E-01
DAV:   6    -0.599201257880E+02   -0.96757E-04   -0.12608E-03   496   0.185E-01    0.468E-02
DAV:   7    -0.599206140194E+02   -0.48823E-03   -0.29781E-04   336   0.922E-02    0.216E-02
DAV:   8    -0.599211003392E+02   -0.48632E-03   -0.18574E-04   352   0.632E-02    0.145E-02
DAV:   9    -0.599215249832E+02   -0.42464E-03   -0.16995E-04   320   0.525E-02    0.853E-03
DAV:  10    -0.599217968958E+02   -0.27191E-03   -0.12323E-04   352   0.417E-02    0.532E-03
DAV:  11    -0.599218714322E+02   -0.74536E-04   -0.18859E-05   368   0.213E-02
  22 F= -.59921871E+02 E0= -.59903016E+02  d E =-.498200E-01
 curvature:  -4.35 expect dE=-0.534E+00 dE for cont linesearch -0.308E-03
 trial: gam= 1.00269 g(F)=  0.103E+00 g(S)=  0.195E-01 ort = 0.119E-01 (trialstep = 0.221E+00)
 search vector abs. value=  0.215E+01
 bond charge predicted
       N       E                     dE             d eps       ncg     rms          rms(c)
DAV:   1    -0.600525487164E+02   -0.13075E+00   -0.10027E+01   384   0.205E+01    0.168E+00
DAV:   2    -0.599719155179E+02    0.80633E-01   -0.49385E-01   432   0.343E+00    0.870E-01
DAV:   3    -0.599544769003E+02    0.17439E-01   -0.40870E-02   416   0.126E+00    0.436E-01
DAV:   4    -0.599495871774E+02    0.48897E-02   -0.12977E-02   528   0.743E-01    0.133E-01
DAV:   5    -0.599493894657E+02    0.19771E-03   -0.19829E-03   496   0.280E-01    0.485E-02
DAV:   6    -0.599494690001E+02   -0.79534E-04   -0.23950E-04   352   0.892E-02
  23 F= -.59949469E+02 E0= -.59932269E+02  d E =-.275976E-01
 ZBRENT: can't locate minimum, use default step
 trial-energy change:   -0.027598  1 .order   -0.028719   -0.029751   -0.027687
 step:   0.8828(harm=  3.1813)  dis= 0.09665  next Energy=   -60.136293 (dE=-0.214E+00)
 bond charge predicted
       N       E                     dE             d eps       ncg     rms          rms(c)
DAV:   1    -0.610178459820E+02   -0.10685E+01   -0.92533E+01   384   0.622E+01    0.539E+00
DAV:   2    -0.602164893398E+02    0.80136E+00   -0.48957E+00   480   0.111E+01    0.268E+00
DAV:   3    -0.600601888848E+02    0.15630E+00   -0.38899E-01   416   0.421E+00    0.135E+00
DAV:   4    -0.600198334467E+02    0.40355E-01   -0.10041E-01   496   0.198E+00    0.459E-01
DAV:   5    -0.600170207791E+02    0.28127E-02   -0.14605E-02   496   0.702E-01    0.147E-01
DAV:   6    -0.600175011412E+02   -0.48036E-03   -0.18311E-03   496   0.244E-01    0.661E-02
DAV:   7    -0.600183421732E+02   -0.84103E-03   -0.59965E-04   384   0.120E-01    0.309E-02
DAV:   8    -0.600191010864E+02   -0.75891E-03   -0.37404E-04   384   0.860E-02    0.185E-02
DAV:   9    -0.600196797201E+02   -0.57863E-03   -0.34382E-04   400   0.713E-02    0.127E-02
DAV:  10    -0.600199846403E+02   -0.30492E-03   -0.17880E-04   352   0.490E-02    0.611E-03
DAV:  11    -0.600200527094E+02   -0.68069E-04   -0.30775E-05   368   0.245E-02
  24 F= -.60020053E+02 E0= -.60008309E+02  d E =-.981813E-01
 curvature: -10.09 expect dE=-0.168E+01 dE for cont linesearch -0.313E-01
 ZBRENT: increasing intervall
 opt :   2.2070  next Energy=   -60.070360 (dE=-0.148E+00)
 bond charge predicted
       N       E                     dE             d eps       ncg     rms          rms(c)
DAV:   1    -0.642974929699E+02   -0.42775E+01   -0.41445E+02   384   0.141E+02    0.124E+01
DAV:   2    -0.608500781217E+02    0.34474E+01   -0.23294E+01   432   0.268E+01    0.573E+00
DAV:   3    -0.602469011709E+02    0.60318E+00   -0.19335E+00   416   0.944E+00    0.296E+00
DAV:   4    -0.601109286680E+02    0.13597E+00   -0.32883E-01   496   0.366E+00    0.102E+00
DAV:   5    -0.600985668864E+02    0.12362E-01   -0.41549E-02   464   0.120E+00    0.257E-01
DAV:   6    -0.600993405104E+02   -0.77362E-03   -0.59751E-03   464   0.454E-01    0.117E-01
DAV:   7    -0.601006847470E+02   -0.13442E-02   -0.17001E-03   432   0.214E-01    0.616E-02
DAV:   8    -0.601019998283E+02   -0.13151E-02   -0.13511E-03   384   0.164E-01    0.322E-02
DAV:   9    -0.601027770282E+02   -0.77720E-03   -0.94144E-04   400   0.126E-01    0.244E-02
DAV:  10    -0.601032010733E+02   -0.42405E-03   -0.49650E-04   416   0.931E-02    0.119E-02
DAV:  11    -0.601032920674E+02   -0.90994E-04   -0.57546E-05   368   0.387E-02
  25 F= -.60103292E+02 E0= -.60100983E+02  d E =-.181421E+00
 curvature: -16.21 expect dE=-0.189E+02 dE for cont linesearch -0.223E-02
 trial: gam=10.30957 g(F)=  0.107E+01 g(S)=  0.102E+00 ort = 0.172E-01 (trialstep = 0.578E-02)
 search vector abs. value=  0.230E+03
 bond charge predicted
       N       E                     dE             d eps       ncg     rms          rms(c)
DAV:   1    -0.601179481976E+02   -0.14747E-01   -0.74813E-01   384   0.566E+00    0.428E-01
DAV:   2    -0.601129335590E+02    0.50146E-02   -0.21526E-02   416   0.886E-01    0.222E-01
DAV:   3    -0.601112747356E+02    0.16588E-02   -0.72898E-03   496   0.471E-01    0.668E-02
DAV:   4    -0.601112011330E+02    0.73603E-04   -0.50075E-04   472   0.137E-01
  26 F= -.60111201E+02 E0= -.60109123E+02  d E =-.790907E-02
 ZBRENT: can't locate minimum, use default step
 trial-energy change:   -0.007909  1 .order   -0.007998   -0.007770   -0.008226
 step:   0.0231(harm=  0.0231)  dis= 0.02641  next Energy=   -60.138019 (dE=-0.347E-01)
 bond charge predicted
       N       E                     dE             d eps       ncg     rms          rms(c)
DAV:   1    -0.601976184290E+02   -0.86344E-01   -0.67278E+00   384   0.168E+01    0.130E+00
DAV:   2    -0.601498064178E+02    0.47812E-01   -0.20248E-01   416   0.266E+00    0.674E-01
DAV:   3    -0.601348811664E+02    0.14925E-01   -0.58175E-02   448   0.137E+00    0.211E-01
DAV:   4    -0.601343158202E+02    0.56535E-03   -0.35403E-03   448   0.382E-01    0.976E-02
DAV:   5    -0.601343119683E+02    0.38518E-05   -0.65869E-04   480   0.158E-01
  27 F= -.60134312E+02 E0= -.60132874E+02  d E =-.310199E-01
 curvature:  -3.03 expect dE=-0.363E+01 dE for cont linesearch -0.249E-01
 ZBRENT: increasing intervall
 opt :   0.0578  next Energy=   -60.180191 (dE=-0.769E-01)
 bond charge predicted
       N       E                     dE             d eps       ncg     rms          rms(c)
DAV:   1    -0.604472230949E+02   -0.31291E+00   -0.27264E+01   384   0.336E+01    0.270E+00
DAV:   2    -0.602436219270E+02    0.20360E+00   -0.88992E-01   424   0.554E+00    0.139E+00
DAV:   3    -0.601849496790E+02    0.58672E-01   -0.20902E-01   488   0.275E+00    0.468E-01
DAV:   4    -0.601818659935E+02    0.30837E-02   -0.13118E-02   440   0.744E-01    0.207E-01
DAV:   5    -0.601816948664E+02    0.17113E-03   -0.23767E-03   496   0.298E-01    0.609E-02
DAV:   6    -0.601821848243E+02   -0.48996E-03   -0.40151E-04   400   0.143E-01    0.280E-02
DAV:   7    -0.601827019881E+02   -0.51716E-03   -0.25498E-04   368   0.886E-02    0.184E-02
DAV:   8    -0.601831062143E+02   -0.40423E-03   -0.14890E-04   336   0.708E-02    0.913E-03
DAV:   9    -0.601834246865E+02   -0.31847E-03   -0.22943E-04   368   0.602E-02    0.908E-03
DAV:  10    -0.601834708015E+02   -0.46115E-04   -0.27247E-05   368   0.344E-02
  28 F= -.60183471E+02 E0= -.60182646E+02  d E =-.801787E-01
 curvature:  -5.60 expect dE=-0.693E+01 dE for cont linesearch -0.466E-01
 ZBRENT: increasing intervall
 opt :   0.1271  next Energy=   -60.280134 (dE=-0.177E+00)
 bond charge predicted
       N       E                     dE             d eps       ncg     rms          rms(c)
DAV:   1    -0.614193884995E+02   -0.12360E+01   -0.11289E+02   384   0.687E+01    0.593E+00
DAV:   2    -0.605230703749E+02    0.89632E+00   -0.44192E+00   432   0.123E+01    0.291E+00
DAV:   3    -0.603025780989E+02    0.22049E+00   -0.71783E-01   496   0.547E+00    0.117E+00
DAV:   4    -0.602811210229E+02    0.21457E-01   -0.59386E-02   496   0.156E+00    0.480E-01
DAV:   5    -0.602785059876E+02    0.26150E-02   -0.80240E-03   456   0.550E-01    0.123E-01
DAV:   6    -0.602791861424E+02   -0.68015E-03   -0.12680E-03   528   0.234E-01    0.542E-02
DAV:   7    -0.602799469295E+02   -0.76079E-03   -0.57086E-04   400   0.125E-01    0.312E-02
DAV:   8    -0.602805556463E+02   -0.60872E-03   -0.33110E-04   352   0.963E-02    0.174E-02
DAV:   9    -0.602810416725E+02   -0.48603E-03   -0.48347E-04   400   0.842E-02    0.145E-02
DAV:  10    -0.602811203422E+02   -0.78670E-04   -0.92531E-05   344   0.537E-02
  29 F= -.60281120E+02 E0= -.60280779E+02  d E =-.177828E+00
 curvature: -11.61 expect dE=-0.157E+02 dE for cont linesearch -0.864E-01
 ZBRENT: increasing intervall
 opt :   0.2657  next Energy=   -60.452045 (dE=-0.349E+00)
 bond charge predicted
       N       E                     dE             d eps       ncg     rms          rms(c)
DAV:   1    -0.652724793101E+02   -0.49914E+01   -0.51675E+02   384   0.162E+02    0.142E+01
DAV:   2    -0.614762617084E+02    0.37962E+01   -0.22828E+01   400   0.302E+01    0.653E+00
DAV:   3    -0.605760164819E+02    0.90025E+00   -0.29955E+00   480   0.112E+01    0.328E+00
DAV:   4    -0.604397008175E+02    0.13632E+00   -0.34588E-01   528   0.381E+00    0.117E+00
DAV:   5    -0.604230949813E+02    0.16606E-01   -0.39029E-02   504   0.125E+00    0.275E-01
DAV:   6    -0.604225931936E+02    0.50179E-03   -0.52484E-03   504   0.475E-01    0.120E-01
DAV:   7    -0.604226235308E+02   -0.30337E-04   -0.19051E-03   448   0.251E-01    0.678E-02
DAV:   8    -0.604225036342E+02    0.11990E-03   -0.14607E-03   456   0.190E-01    0.430E-02
DAV:   9    -0.604222207772E+02    0.28286E-03   -0.11119E-03   392   0.140E-01    0.323E-02
DAV:  10    -0.604219751682E+02    0.24561E-03   -0.31351E-04   384   0.867E-02    0.153E-02
DAV:  11    -0.604219002283E+02    0.74940E-04   -0.48321E-05   384   0.372E-02
  30 F= -.60421900E+02 E0= -.60421848E+02  d E =-.318608E+00
 curvature: -22.98 expect dE=-0.383E+02 dE for cont linesearch -0.926E-02
 trial: gam= 0.30783 g(F)=  0.151E+01 g(S)=  0.158E+00 ort = 0.305E+00 (trialstep = 0.578E-01)
 search vector abs. value=  0.237E+02
 bond charge predicted
       N       E                     dE             d eps       ncg     rms          rms(c)
DAV:   1    -0.605786030572E+02   -0.15663E+00   -0.80216E+00   384   0.188E+01    0.138E+00
DAV:   2    -0.605297928820E+02    0.48810E-01   -0.22527E-01   392   0.305E+00    0.729E-01
DAV:   3    -0.605101173086E+02    0.19676E-01   -0.86649E-02   480   0.168E+00    0.221E-01
DAV:   4    -0.605096825878E+02    0.43472E-03   -0.65205E-03   496   0.503E-01    0.115E-01
DAV:   5    -0.605094660830E+02    0.21650E-03   -0.83989E-04   496   0.181E-01    0.382E-02
DAV:   6    -0.605096185005E+02   -0.15242E-03   -0.10776E-04   304   0.758E-02    0.161E-02
DAV:   7    -0.605098085359E+02   -0.19004E-03   -0.92671E-05   328   0.522E-02    0.110E-02
DAV:   8    -0.605100160926E+02   -0.20756E-03   -0.91267E-05   312   0.519E-02    0.608E-03
DAV:   9    -0.605101096826E+02   -0.93590E-04   -0.50118E-05   344   0.296E-02
  31 F= -.60510110E+02 E0= -.60510078E+02  d E =-.882095E-01
 trial-energy change:   -0.088209  1 .order   -0.088311   -0.101559   -0.075063
 step:   0.2214(harm=  0.2214)  dis= 0.08008  next Energy=   -60.616538 (dE=-0.195E+00)
 bond charge predicted
       N       E                     dE             d eps       ncg     rms          rms(c)
DAV:   1    -0.611812459537E+02   -0.67123E+00   -0.64900E+01   384   0.533E+01    0.410E+00
DAV:   2    -0.607713937289E+02    0.40985E+00   -0.19190E+00   384   0.903E+00    0.212E+00
DAV:   3    -0.606208604337E+02    0.15053E+00   -0.59418E-01   480   0.461E+00    0.709E-01
DAV:   4    -0.606161382246E+02    0.47222E-02   -0.41422E-02   480   0.129E+00    0.349E-01
DAV:   5    -0.606146592376E+02    0.14790E-02   -0.61526E-03   480   0.479E-01    0.111E-01
DAV:   6    -0.606151712419E+02   -0.51200E-03   -0.95355E-04   464   0.213E-01    0.477E-02
DAV:   7    -0.606157750813E+02   -0.60384E-03   -0.62975E-04   368   0.132E-01    0.347E-02
DAV:   8    -0.606162470973E+02   -0.47202E-03   -0.48827E-04   336   0.121E-01    0.192E-02
DAV:   9    -0.606164189410E+02   -0.17184E-03   -0.31284E-04   376   0.758E-02    0.159E-02
DAV:  10    -0.606164464291E+02   -0.27488E-04   -0.69663E-05   344   0.477E-02
  32 F= -.60616446E+02 E0= -.60616440E+02  d E =-.194546E+00
 curvature:  -1.49 expect dE=-0.666E+00 dE for cont linesearch -0.399E-04
 trial: gam= 0.06856 g(F)=  0.364E+00 g(S)=  0.825E-01 ort =-0.252E-01 (trialstep = 0.905E-01)
 search vector abs. value=  0.555E+00
 bond charge predicted
       N       E                     dE             d eps       ncg     rms          rms(c)
DAV:   1    -0.606543213591E+02   -0.37902E-01   -0.39775E-01   400   0.485E+00    0.266E-01
DAV:   2    -0.606537404499E+02    0.58091E-03   -0.10799E-02   568   0.707E-01    0.155E-01
DAV:   3    -0.606532101853E+02    0.53026E-03   -0.17770E-03   504   0.288E-01    0.493E-02
DAV:   4    -0.606531575742E+02    0.52611E-04   -0.22203E-04   432   0.923E-02
  33 F= -.60653158E+02 E0= -.60653151E+02  d E =-.367111E-01
 ZBRENT: can't locate minimum, use default step
 trial-energy change:   -0.036711  1 .order   -0.036578   -0.040285   -0.032871
 step:   0.3619(harm=  0.4916)  dis= 0.01476  next Energy=   -60.725886 (dE=-0.109E+00)
 bond charge predicted
       N       E                     dE             d eps       ncg     rms          rms(c)
DAV:   1    -0.607286358487E+02   -0.75426E-01   -0.36028E+00   384   0.146E+01    0.811E-01
DAV:   2    -0.607227082081E+02    0.59276E-02   -0.98340E-02   560   0.212E+00    0.470E-01
DAV:   3    -0.607176220018E+02    0.50862E-02   -0.16108E-02   504   0.872E-01    0.149E-01
DAV:   4    -0.607171699274E+02    0.45207E-03   -0.21258E-03   520   0.277E-01    0.625E-02
DAV:   5    -0.607171603801E+02    0.95473E-05   -0.33309E-04   456   0.108E-01
  34 F= -.60717160E+02 E0= -.60717155E+02  d E =-.100714E+00
 curvature:  -0.27 expect dE=-0.610E-01 dE for cont linesearch -0.529E-02
 ZBRENT: extrapolating
 opt :   0.4699  next Energy=   -60.722744 (dE=-0.106E+00)
 bond charge predicted
       N       E                     dE             d eps       ncg     rms          rms(c)
DAV:   1    -0.607244538519E+02   -0.72839E-02   -0.57473E-01   384   0.584E+00    0.325E-01
DAV:   2    -0.607234192420E+02    0.10346E-02   -0.15730E-02   576   0.854E-01    0.190E-01
DAV:   3    -0.607225794932E+02    0.83975E-03   -0.25866E-03   496   0.347E-01    0.603E-02
DAV:   4    -0.607225324187E+02    0.47074E-04   -0.33238E-04   400   0.111E-01
  35 F= -.60722532E+02 E0= -.60722527E+02  d E =-.106086E+00
 curvature:  -0.29 expect dE=-0.984E-01 dE for cont linesearch -0.339E-04
 trial: gam= 0.76880 g(F)=  0.285E+00 g(S)=  0.548E-01 ort =-0.806E-02 (trialstep = 0.141E+00)
 search vector abs. value=  0.655E+00
 bond charge predicted
       N       E                     dE             d eps       ncg     rms          rms(c)
DAV:   1    -0.607636474151E+02   -0.41068E-01   -0.12659E+00   384   0.805E+00    0.406E-01
DAV:   2    -0.607618424435E+02    0.18050E-02   -0.33626E-02   552   0.118E+00    0.245E-01
DAV:   3    -0.607601569878E+02    0.16855E-02   -0.52201E-03   504   0.423E-01    0.954E-02
DAV:   4    -0.607600342672E+02    0.12272E-03   -0.61309E-04   480   0.153E-01    0.429E-02
DAV:   5    -0.607600680456E+02   -0.33778E-04   -0.98970E-05   280   0.600E-02
  36 F= -.60760068E+02 E0= -.60760062E+02  d E =-.375356E-01
 trial-energy change:   -0.037536  1 .order   -0.037754   -0.046975   -0.028532
 step:   0.3588(harm=  0.3588)  dis= 0.03080  next Energy=   -60.782356 (dE=-0.598E-01)
 bond charge predicted
       N       E                     dE             d eps       ncg     rms          rms(c)
DAV:   1    -0.607905964509E+02   -0.30562E-01   -0.30257E+00   384   0.124E+01    0.626E-01
DAV:   2    -0.607863307696E+02    0.42657E-02   -0.79856E-02   552   0.181E+00    0.375E-01
DAV:   3    -0.607824062446E+02    0.39245E-02   -0.12096E-02   496   0.646E-01    0.145E-01
DAV:   4    -0.607820972202E+02    0.30902E-03   -0.14108E-03   544   0.230E-01    0.651E-02
DAV:   5    -0.607821193449E+02   -0.22125E-04   -0.18937E-04   280   0.850E-02
  37 F= -.60782119E+02 E0= -.60782111E+02  d E =-.595869E-01
 curvature:  -0.35 expect dE=-0.750E-01 dE for cont linesearch -0.122E-04
 trial: gam= 0.56629 g(F)=  0.181E+00 g(S)=  0.312E-01 ort = 0.476E-02 (trialstep = 0.184E+00)
 search vector abs. value=  0.428E+00
 bond charge predicted
       N       E                     dE             d eps       ncg     rms          rms(c)
DAV:   1    -0.608192901708E+02   -0.37193E-01   -0.12519E+00   384   0.786E+00    0.363E-01
DAV:   2    -0.608181543804E+02    0.11358E-02   -0.27781E-02   552   0.110E+00    0.221E-01
DAV:   3    -0.608167095155E+02    0.14449E-02   -0.32961E-03   512   0.342E-01    0.807E-02
DAV:   4    -0.608165946356E+02    0.11488E-03   -0.39835E-04   464   0.127E-01    0.300E-02
DAV:   5    -0.608166471199E+02   -0.52484E-04   -0.65955E-05   312   0.506E-02
  38 F= -.60816647E+02 E0= -.60816637E+02  d E =-.345278E-01
 ZBRENT: can't locate minimum, use default step
 trial-energy change:   -0.034528  1 .order   -0.034767   -0.039721   -0.029812
 step:   0.7379(harm=  0.7395)  dis= 0.04029  next Energy=   -60.861731 (dE=-0.796E-01)
 bond charge predicted
       N       E                     dE             d eps       ncg     rms          rms(c)
DAV:   1    -0.608822011623E+02   -0.65607E-01   -0.11315E+01   384   0.236E+01    0.110E+00
DAV:   2    -0.608725475791E+02    0.96536E-02   -0.25745E-01   568   0.329E+00    0.664E-01
DAV:   3    -0.608604804772E+02    0.12067E-01   -0.27753E-02   504   0.989E-01    0.255E-01
DAV:   4    -0.608591166409E+02    0.13638E-02   -0.36774E-03   544   0.379E-01    0.911E-02
DAV:   5    -0.608591616213E+02   -0.44980E-04   -0.56189E-04   432   0.143E-01
  39 F= -.60859162E+02 E0= -.60859142E+02  d E =-.770423E-01
 curvature:  -0.74 expect dE=-0.195E+00 dE for cont linesearch -0.435E-05
 trial: gam= 1.32652 g(F)=  0.250E+00 g(S)=  0.151E-01 ort =-0.159E-02 (trialstep = 0.125E+00)
 search vector abs. value=  0.101E+01
 bond charge predicted
       N       E                     dE             d eps       ncg     rms          rms(c)
DAV:   1    -0.608907770955E+02   -0.31660E-01   -0.14030E+00   384   0.824E+00    0.366E-01
DAV:   2    -0.608897477146E+02    0.10294E-02   -0.28390E-02   504   0.111E+00    0.218E-01
DAV:   3    -0.608882801368E+02    0.14676E-02   -0.35893E-03   512   0.357E-01    0.682E-02
DAV:   4    -0.608882319102E+02    0.48227E-04   -0.39201E-04   400   0.124E-01
  40 F= -.60888232E+02 E0= -.60888209E+02  d E =-.290703E-01
 ZBRENT: can't locate minimum, use default step
 trial-energy change:   -0.029070  1 .order   -0.029487   -0.032777   -0.026198
 step:   0.4983(harm=  0.6207)  dis= 0.05085  next Energy=   -60.940815 (dE=-0.817E-01)
 bond charge predicted
       N       E                     dE             d eps       ncg     rms          rms(c)
DAV:   1    -0.609572637416E+02   -0.68984E-01   -0.12630E+01   384   0.246E+01    0.111E+00
DAV:   2    -0.609481088169E+02    0.91549E-02   -0.25788E-01   504   0.331E+00    0.652E-01
DAV:   3    -0.609358533015E+02    0.12256E-01   -0.30810E-02   504   0.106E+00    0.196E-01
DAV:   4    -0.609350962469E+02    0.75705E-03   -0.33170E-03   472   0.352E-01    0.788E-02
DAV:   5    -0.609351805692E+02   -0.84322E-04   -0.51360E-04   432   0.132E-01
  41 F= -.60935181E+02 E0= -.60935145E+02  d E =-.760189E-01
 curvature:  -1.12 expect dE=-0.269E+00 dE for cont linesearch -0.334E-02
 ZBRENT: extrapolating
 opt :   0.6305  next Energy=   -60.938810 (dE=-0.796E-01)
 bond charge predicted
       N       E                     dE             d eps       ncg     rms          rms(c)
DAV:   1    -0.609413888377E+02   -0.62926E-02   -0.15955E+00   384   0.877E+00    0.393E-01
DAV:   2    -0.609399654709E+02    0.14234E-02   -0.32061E-02   512   0.117E+00    0.232E-01
DAV:   3    -0.609382123636E+02    0.17531E-02   -0.42736E-03   512   0.388E-01    0.696E-02
DAV:   4    -0.609381533563E+02    0.59007E-04   -0.44866E-04   424   0.130E-01
  42 F= -.60938153E+02 E0= -.60938112E+02  d E =-.789917E-01
 curvature:  -1.22 expect dE=-0.432E+00 dE for cont linesearch -0.776E-05
 trial: gam= 1.22531 g(F)=  0.327E+00 g(S)=  0.271E-01 ort =-0.254E-02 (trialstep = 0.122E+00)
 search vector abs. value=  0.187E+01
 bond charge predicted
       N       E                     dE             d eps       ncg     rms          rms(c)
DAV:   1    -0.609811348393E+02   -0.42922E-01   -0.25997E+00   384   0.112E+01    0.492E-01
DAV:   2    -0.609793314126E+02    0.18034E-02   -0.49927E-02   456   0.147E+00    0.290E-01
DAV:   3    -0.609768284899E+02    0.25029E-02   -0.70457E-03   512   0.495E-01    0.859E-02
DAV:   4    -0.609767329243E+02    0.95566E-04   -0.65300E-04   440   0.158E-01
  43 F= -.60976733E+02 E0= -.60976705E+02  d E =-.385796E-01
 ZBRENT: can't locate minimum, use default step
 trial-energy change:   -0.038580  1 .order   -0.039638   -0.042939   -0.036336
 step:   0.4897(harm=  0.7961)  dis= 0.07143  next Energy=   -61.077776 (dE=-0.140E+00)
 bond charge predicted
       N       E                     dE             d eps       ncg     rms          rms(c)
DAV:   1    -0.610919638431E+02   -0.11514E+00   -0.23411E+01   384   0.335E+01    0.154E+00
DAV:   2    -0.610736513410E+02    0.18313E-01   -0.47319E-01   448   0.451E+00    0.873E-01
DAV:   3    -0.610532549307E+02    0.20396E-01   -0.56687E-02   512   0.146E+00    0.270E-01
DAV:   4    -0.610520299376E+02    0.12250E-02   -0.58197E-03   464   0.463E-01    0.111E-01
DAV:   5    -0.610520497446E+02   -0.19807E-04   -0.80359E-04   432   0.167E-01
  44 F= -.61052050E+02 E0= -.61052043E+02  d E =-.113896E+00
 curvature:  -1.68 expect dE=-0.293E+00 dE for cont linesearch -0.169E-01
 ZBRENT: increasing intervall
 opt :   1.2242  next Energy=   -61.035521 (dE=-0.974E-01)
 bond charge predicted
       N       E                     dE             d eps       ncg     rms          rms(c)
DAV:   1    -0.611999849732E+02   -0.14796E+00   -0.93773E+01   384   0.667E+01    0.343E+00
DAV:   2    -0.611144519499E+02    0.85533E-01   -0.22412E+00   464   0.990E+00    0.180E+00
DAV:   3    -0.610412579606E+02    0.73194E-01   -0.17322E-01   528   0.275E+00    0.789E-01
DAV:   4    -0.610287341392E+02    0.12524E-01   -0.30006E-02   496   0.105E+00    0.225E-01
DAV:   5    -0.610279764288E+02    0.75771E-03   -0.28504E-03   464   0.330E-01    0.819E-02
DAV:   6    -0.610282168905E+02   -0.24046E-03   -0.55688E-04   352   0.147E-01    0.441E-02
DAV:   7    -0.610284597223E+02   -0.24283E-03   -0.62686E-04   320   0.128E-01    0.340E-02
DAV:   8    -0.610285016698E+02   -0.41947E-04   -0.59346E-04   344   0.103E-01
  45 F= -.61028502E+02 E0= -.61028501E+02  d E =-.903483E-01
 curvature:   1.64 expect dE= 0.153E+01 dE for cont linesearch  0.306E-01
 ZBRENT: bracketing found
 ZBRENT: interpolating
 opt :   0.8008  next Energy=   -61.073387 (dE=-0.135E+00)
 bond charge predicted
       N       E                     dE             d eps       ncg     rms          rms(c)
DAV:   1    -0.611378129380E+02   -0.10935E+00   -0.32308E+01   448   0.401E+01    0.184E+00
DAV:   2    -0.611086342619E+02    0.29179E-01   -0.51555E-01   480   0.490E+00    0.108E+00
DAV:   3    -0.610763598622E+02    0.32274E-01   -0.67703E-02   488   0.153E+00    0.455E-01
DAV:   4    -0.610706515055E+02    0.57084E-02   -0.10090E-02   520   0.643E-01    0.152E-01
DAV:   5    -0.610696887248E+02    0.96278E-03   -0.14497E-03   504   0.244E-01    0.520E-02
DAV:   6    -0.610694960330E+02    0.19269E-03   -0.16021E-04   360   0.874E-02    0.254E-02
DAV:   7    -0.610692886921E+02    0.20734E-03   -0.13669E-04   320   0.708E-02    0.167E-02
DAV:   8    -0.610694459320E+02   -0.15724E-03   -0.90006E-05   304   0.555E-02    0.995E-03
DAV:   9    -0.610696452630E+02   -0.19933E-03   -0.53641E-05   312   0.407E-02    0.768E-03
DAV:  10    -0.610699144057E+02   -0.26914E-03   -0.22688E-05   344   0.353E-02    0.426E-03
DAV:  11    -0.610700629342E+02   -0.14853E-03   -0.93769E-06   360   0.208E-02    0.257E-03
DAV:  12    -0.610701292167E+02   -0.66283E-04   -0.35548E-06   352   0.121E-02
  46 F= -.61070129E+02 E0= -.61070127E+02  d E =-.131976E+00
 curvature:  -1.15 expect dE=-0.395E+00 dE for cont linesearch -0.274E-04
 trial: gam= 1.03609 g(F)=  0.322E+00 g(S)=  0.228E-01 ort =-0.669E-02 (trialstep = 0.206E+00)
 search vector abs. value=  0.234E+01
 bond charge predicted
       N       E                     dE             d eps       ncg     rms          rms(c)
DAV:   1    -0.611393358818E+02   -0.69273E-01   -0.92930E+00   384   0.210E+01    0.933E-01
DAV:   2    -0.611347303645E+02    0.46055E-02   -0.17595E-01   480   0.276E+00    0.557E-01
DAV:   3    -0.611258904779E+02    0.88399E-02   -0.19485E-02   512   0.873E-01    0.146E-01
DAV:   4    -0.611256161527E+02    0.27433E-03   -0.20764E-03   504   0.273E-01    0.618E-02
DAV:   5    -0.611257637108E+02   -0.14756E-03   -0.20773E-04   336   0.961E-02    0.204E-02
DAV:   6    -0.611259676011E+02   -0.20389E-03   -0.78164E-05   320   0.577E-02    0.111E-02
DAV:   7    -0.611261820765E+02   -0.21448E-03   -0.72294E-05   288   0.441E-02    0.719E-03
DAV:   8    -0.611263077991E+02   -0.12572E-03   -0.48242E-05   312   0.304E-02    0.565E-03
DAV:   9    -0.611263782015E+02   -0.70402E-04   -0.27909E-05   352   0.231E-02
  47 F= -.61126378E+02 E0= -.61126375E+02  d E =-.562490E-01
 trial-energy change:   -0.056249  1 .order   -0.056310   -0.069759   -0.042860
 step:   0.5353(harm=  0.5353)  dis= 0.08351  next Energy=   -61.160586 (dE=-0.905E-01)
 bond charge predicted
       N       E                     dE             d eps       ncg     rms          rms(c)
DAV:   1    -0.611940925983E+02   -0.67785E-01   -0.23706E+01   384   0.335E+01    0.155E+00
DAV:   2    -0.611807723551E+02    0.13320E-01   -0.46744E-01   464   0.450E+00    0.900E-01
DAV:   3    -0.611589833357E+02    0.21789E-01   -0.46157E-02   512   0.138E+00    0.276E-01
DAV:   4    -0.611576321128E+02    0.13512E-02   -0.60724E-03   512   0.462E-01    0.103E-01
DAV:   5    -0.611578192871E+02   -0.18717E-03   -0.58963E-04   448   0.155E-01    0.372E-02
DAV:   6    -0.611581460029E+02   -0.32672E-03   -0.13888E-04   320   0.696E-02    0.181E-02
DAV:   7    -0.611584700863E+02   -0.32408E-03   -0.13266E-04   288   0.574E-02    0.137E-02
DAV:   8    -0.611587117692E+02   -0.24168E-03   -0.12468E-04   288   0.462E-02    0.862E-03
DAV:   9    -0.611588102494E+02   -0.98480E-04   -0.53659E-05   352   0.325E-02
  48 F= -.61158810E+02 E0= -.61158804E+02  d E =-.886810E-01
 curvature:  -1.85 expect dE=-0.386E+00 dE for cont linesearch -0.890E-04
 trial: gam= 0.60583 g(F)=  0.184E+00 g(S)=  0.247E-01 ort =-0.106E-01 (trialstep = 0.272E+00)
 search vector abs. value=  0.105E+01
 bond charge predicted
       N       E                     dE             d eps       ncg     rms          rms(c)
DAV:   1    -0.612074009235E+02   -0.48689E-01   -0.75365E+00   384   0.190E+01    0.850E-01
DAV:   2    -0.612014059428E+02    0.59950E-02   -0.14414E-01   480   0.259E+00    0.519E-01
DAV:   3    -0.611937654770E+02    0.76405E-02   -0.24679E-02   504   0.941E-01    0.165E-01
DAV:   4    -0.611934136540E+02    0.35182E-03   -0.31608E-03   472   0.346E-01    0.815E-02
DAV:   5    -0.611933862002E+02    0.27454E-04   -0.56017E-04   464   0.136E-01
  49 F= -.61193386E+02 E0= -.61193367E+02  d E =-.345760E-01
 trial-energy change:   -0.034576  1 .order   -0.035693   -0.054993   -0.016393
 step:   0.4317(harm=  0.3878)  dis= 0.03831  next Energy=   -61.197966 (dE=-0.392E-01)
 bond charge predicted
       N       E                     dE             d eps       ncg     rms          rms(c)
DAV:   1    -0.612008052369E+02   -0.73916E-02   -0.25877E+00   384   0.111E+01    0.492E-01
DAV:   2    -0.611985388167E+02    0.22664E-02   -0.48819E-02   496   0.150E+00    0.302E-01
DAV:   3    -0.611957131785E+02    0.28256E-02   -0.86968E-03   512   0.555E-01    0.915E-02
DAV:   4    -0.611956859512E+02    0.27227E-04   -0.10806E-03   456   0.204E-01    0.465E-02
DAV:   5    -0.611957675689E+02   -0.81618E-04   -0.19367E-04   336   0.851E-02
  50 F= -.61195768E+02 E0= -.61195729E+02  d E =-.369573E-01
 curvature:  -0.87 expect dE=-0.204E+00 dE for cont linesearch -0.478E-03
 trial: gam= 1.23525 g(F)=  0.220E+00 g(S)=  0.157E-01 ort =-0.241E-01 (trialstep = 0.180E+00)
 search vector abs. value=  0.178E+01
 bond charge predicted
       N       E                     dE             d eps       ncg     rms          rms(c)
DAV:   1    -0.612320407158E+02   -0.36355E-01   -0.56703E+00   384   0.164E+01    0.677E-01
DAV:   2    -0.612298073225E+02    0.22334E-02   -0.10312E-01   480   0.221E+00    0.395E-01
DAV:   3    -0.612251120229E+02    0.46953E-02   -0.12088E-02   496   0.698E-01    0.116E-01
DAV:   4    -0.612249751429E+02    0.13688E-03   -0.14389E-03   432   0.237E-01    0.540E-02
DAV:   5    -0.612250416374E+02   -0.66495E-04   -0.17358E-04   320   0.854E-02
  51 F= -.61225042E+02 E0= -.61224992E+02  d E =-.292741E-01
 trial-energy change:   -0.029274  1 .order   -0.030053   -0.037004   -0.023102
 step:   0.4781(harm=  0.4781)  dis= 0.05537  next Energy=   -61.245017 (dE=-0.492E-01)
 bond charge predicted
       N       E                     dE             d eps       ncg     rms          rms(c)
DAV:   1    -0.612609586721E+02   -0.35984E-01   -0.15666E+01   384   0.273E+01    0.115E+00
DAV:   2    -0.612553457874E+02    0.56129E-02   -0.29333E-01   480   0.374E+00    0.658E-01
DAV:   3    -0.612429660949E+02    0.12380E-01   -0.30159E-02   488   0.114E+00    0.213E-01
DAV:   4    -0.612423237151E+02    0.64238E-03   -0.38262E-03   440   0.384E-01    0.923E-02
DAV:   5    -0.612423842359E+02   -0.60521E-04   -0.43545E-04   448   0.131E-01
  52 F= -.61242384E+02 E0= -.61242312E+02  d E =-.466167E-01
 curvature:  -2.07 expect dE=-0.442E+00 dE for cont linesearch -0.105E-04
 trial: gam= 0.70105 g(F)=  0.197E+00 g(S)=  0.166E-01 ort = 0.300E-02 (trialstep = 0.239E+00)
 search vector abs. value=  0.109E+01
 bond charge predicted
       N       E                     dE             d eps       ncg     rms          rms(c)
DAV:   1    -0.612852585137E+02   -0.42935E-01   -0.64703E+00   384   0.173E+01    0.667E-01
DAV:   2    -0.612861583892E+02   -0.89988E-03   -0.12198E-01   512   0.237E+00    0.391E-01
DAV:   3    -0.612820962479E+02    0.40621E-02   -0.10629E-02   544   0.708E-01    0.135E-01
DAV:   4    -0.612819092328E+02    0.18702E-03   -0.12826E-03   416   0.219E-01    0.632E-02
DAV:   5    -0.612820132181E+02   -0.10399E-03   -0.20615E-04   272   0.879E-02    0.236E-02
DAV:   6    -0.612821723707E+02   -0.15915E-03   -0.71312E-05   320   0.535E-02    0.132E-02
DAV:   7    -0.612824236403E+02   -0.25127E-03   -0.13238E-04   312   0.535E-02    0.136E-02
DAV:   8    -0.612825887485E+02   -0.16511E-03   -0.84283E-05   336   0.409E-02    0.495E-03
DAV:   9    -0.612826466755E+02   -0.57927E-04   -0.19677E-05   384   0.217E-02
  53 F= -.61282647E+02 E0= -.61282611E+02  d E =-.402624E-01
 trial-energy change:   -0.040262  1 .order   -0.039995   -0.051597   -0.028394
 step:   0.5322(harm=  0.5322)  dis= 0.04336  next Energy=   -61.299753 (dE=-0.574E-01)
 bond charge predicted
       N       E                     dE             d eps       ncg     rms          rms(c)
DAV:   1    -0.613047372312E+02   -0.22148E-01   -0.97314E+00   384   0.212E+01    0.836E-01
DAV:   2    -0.613063993220E+02   -0.16621E-02   -0.18493E-01   504   0.292E+00    0.487E-01
DAV:   3    -0.613004104247E+02    0.59889E-02   -0.16204E-02   552   0.884E-01    0.166E-01
DAV:   4    -0.613000600060E+02    0.35042E-03   -0.19242E-03   472   0.270E-01    0.768E-02
DAV:   5    -0.613001014979E+02   -0.41492E-04   -0.23267E-04   296   0.978E-02
  54 F= -.61300101E+02 E0= -.61300090E+02  d E =-.577173E-01
 curvature:  -1.35 expect dE=-0.169E+00 dE for cont linesearch -0.459E-04
 trial: gam= 0.60040 g(F)=  0.981E-01 g(S)=  0.273E-01 ort = 0.610E-02 (trialstep = 0.298E+00)
 search vector abs. value=  0.527E+00
 bond charge predicted
       N       E                     dE             d eps       ncg     rms          rms(c)
DAV:   1    -0.613288649660E+02   -0.28805E-01   -0.47536E+00   384   0.147E+01    0.619E-01
DAV:   2    -0.613286278340E+02    0.23713E-03   -0.98564E-02   544   0.208E+00    0.357E-01
DAV:   3    -0.613251630796E+02    0.34648E-02   -0.92122E-03   504   0.613E-01    0.122E-01
DAV:   4    -0.613250654326E+02    0.97647E-04   -0.10124E-03   480   0.208E-01    0.544E-02
DAV:   5    -0.613252027247E+02   -0.13729E-03   -0.13675E-04   320   0.779E-02    0.185E-02
DAV:   6    -0.613253642437E+02   -0.16152E-03   -0.52231E-05   312   0.478E-02    0.105E-02
DAV:   7    -0.613255895184E+02   -0.22527E-03   -0.83185E-05   312   0.427E-02    0.830E-03
DAV:   8    -0.613257085942E+02   -0.11908E-03   -0.37886E-05   352   0.275E-02    0.483E-03
DAV:   9    -0.613257827541E+02   -0.74160E-04   -0.21473E-05   352   0.197E-02
  55 F= -.61325783E+02 E0= -.61325776E+02  d E =-.256813E-01
 trial-energy change:   -0.025681  1 .order   -0.025552   -0.038439   -0.012665
 step:   0.4442(harm=  0.4442)  dis= 0.02409  next Energy=   -61.328765 (dE=-0.287E-01)
 bond charge predicted
       N       E                     dE             d eps       ncg     rms          rms(c)
DAV:   1    -0.613298596504E+02   -0.41511E-02   -0.11464E+00   384   0.717E+00    0.304E-01
DAV:   2    -0.613298243379E+02    0.35312E-04   -0.23261E-02   496   0.101E+00    0.175E-01
DAV:   3    -0.613289351253E+02    0.88921E-03   -0.22985E-03   504   0.303E-01    0.562E-02
DAV:   4    -0.613288868484E+02    0.48277E-04   -0.22766E-04   480   0.997E-02
  56 F= -.61328887E+02 E0= -.61328882E+02  d E =-.287854E-01
 curvature:  -0.91 expect dE=-0.125E+00 dE for cont linesearch -0.133E-04
 trial: gam= 1.12134 g(F)=  0.132E+00 g(S)=  0.647E-02 ort = 0.278E-02 (trialstep = 0.214E+00)
 search vector abs. value=  0.807E+00
 bond charge predicted
       N       E                     dE             d eps       ncg     rms          rms(c)
DAV:   1    -0.613514409069E+02   -0.22506E-01   -0.37853E+00   384   0.128E+01    0.553E-01
DAV:   2    -0.613516909286E+02   -0.25002E-03   -0.81484E-02   536   0.191E+00    0.317E-01
DAV:   3    -0.613490422281E+02    0.26487E-02   -0.81827E-03   496   0.588E-01    0.116E-01
DAV:   4    -0.613488976897E+02    0.14454E-03   -0.98257E-04   464   0.201E-01    0.522E-02
DAV:   5    -0.613489686653E+02   -0.70976E-04   -0.14841E-04   336   0.752E-02
  57 F= -.61348969E+02 E0= -.61348965E+02  d E =-.200818E-01
 trial-energy change:   -0.020082  1 .order   -0.020730   -0.030164   -0.011297
 step:   0.4338(harm=  0.3416)  dis= 0.02949  next Energy=   -61.354077 (dE=-0.252E-01)
 bond charge predicted
       N       E                     dE             d eps       ncg     rms          rms(c)
DAV:   1    -0.613528102817E+02   -0.39126E-02   -0.40156E+00   384   0.132E+01    0.568E-01
DAV:   2    -0.613530131426E+02   -0.20286E-03   -0.86409E-02   544   0.196E+00    0.324E-01
DAV:   3    -0.613502332743E+02    0.27799E-02   -0.85092E-03   496   0.600E-01    0.120E-01
DAV:   4    -0.613500965477E+02    0.13673E-03   -0.10314E-03   448   0.205E-01    0.534E-02
DAV:   5    -0.613501884613E+02   -0.91914E-04   -0.15650E-04   328   0.768E-02
  58 F= -.61350188E+02 E0= -.61350185E+02  d E =-.213016E-01
 curvature:  -0.47 expect dE=-0.493E-01 dE for cont linesearch -0.788E-03
 trial: gam= 0.00000 g(F)=  0.744E-01 g(S)=  0.305E-01 ort =-0.368E-01 (trialstep = 0.258E+00)
 search vector abs. value=  0.105E+00
 bond charge predicted
       N       E                     dE             d eps       ncg     rms          rms(c)
DAV:   1    -0.613657227080E+02   -0.15626E-01   -0.80137E-01   384   0.642E+00    0.363E-01
DAV:   2    -0.613645665140E+02    0.11562E-02   -0.25649E-02   528   0.109E+00    0.207E-01
DAV:   3    -0.613638131303E+02    0.75338E-03   -0.54330E-03   480   0.481E-01    0.730E-02
DAV:   4    -0.613638055683E+02    0.75620E-05   -0.80798E-04   480   0.169E-01
  59 F= -.61363806E+02 E0= -.61363800E+02  d E =-.136171E-01
 trial-energy change:   -0.013617  1 .order   -0.013314   -0.027010    0.000382
 step:   0.2541(harm=  0.2541)  dis= 0.01134  next Energy=   -61.363505 (dE=-0.133E-01)
 bond charge predicted
       N       E                     dE             d eps       ncg     rms          rms(c)
DAV:   1    -0.613638682841E+02   -0.55154E-04   -0.27867E-04   408   0.123E-01    0.109E-02
DAV:   2    -0.613638983108E+02   -0.30027E-04   -0.20098E-05   384   0.342E-02
  60 F= -.61363898E+02 E0= -.61363893E+02  d E =-.137098E-01
 curvature:  -0.13 expect dE=-0.429E-02 dE for cont linesearch -0.135E-06
 trial: gam= 0.32497 g(F)=  0.287E-01 g(S)=  0.500E-02 ort =-0.334E-03 (trialstep = 0.257E+00)
 search vector abs. value=  0.446E-01
 bond charge predicted
       N       E                     dE             d eps       ncg     rms          rms(c)
DAV:   1    -0.613699427660E+02   -0.60745E-02   -0.27531E-01   384   0.394E+00    0.213E-01
DAV:   2    -0.613697372429E+02    0.20552E-03   -0.70585E-03   528   0.573E-01    0.122E-01
DAV:   3    -0.613694981938E+02    0.23905E-03   -0.10340E-03   504   0.228E-01    0.365E-02
DAV:   4    -0.613695042820E+02   -0.60882E-05   -0.98173E-05   352   0.670E-02
  61 F= -.61369504E+02 E0= -.61369497E+02  d E =-.560597E-02
 trial-energy change:   -0.005606  1 .order   -0.005482   -0.008639   -0.002326
 step:   0.3516(harm=  0.3516)  dis= 0.00404  next Energy=   -61.369809 (dE=-0.591E-02)
 bond charge predicted
       N       E                     dE             d eps       ncg     rms          rms(c)
DAV:   1    -0.613700339078E+02   -0.53571E-03   -0.37500E-02   384   0.146E+00    0.777E-02
DAV:   2    -0.613700121118E+02    0.21796E-04   -0.95574E-04   512   0.212E-01
  62 F= -.61370012E+02 E0= -.61370004E+02  d E =-.611380E-02
 curvature:  -0.23 expect dE=-0.485E-02 dE for cont linesearch -0.977E-05
 trial: gam= 0.59379 g(F)=  0.163E-01 g(S)=  0.446E-02 ort = 0.137E-02 (trialstep = 0.276E+00)
 search vector abs. value=  0.381E-01
 bond charge predicted
       N       E                     dE             d eps       ncg     rms          rms(c)
DAV:   1    -0.613752588061E+02   -0.52249E-02   -0.32867E-01   384   0.399E+00    0.183E-01
DAV:   2    -0.613749983975E+02    0.26041E-03   -0.69344E-03   512   0.564E-01    0.108E-01
DAV:   3    -0.613747112328E+02    0.28716E-03   -0.11196E-03   504   0.204E-01    0.430E-02
DAV:   4    -0.613747163526E+02   -0.51198E-05   -0.86766E-05   312   0.637E-02
  63 F= -.61374716E+02 E0= -.61374706E+02  d E =-.470424E-02
 trial-energy change:   -0.004704  1 .order   -0.004842   -0.005958   -0.003726
 step:   0.7365(harm=  0.7365)  dis= 0.01007  next Energy=   -61.377964 (dE=-0.795E-02)
 bond charge predicted
       N       E                     dE             d eps       ncg     rms          rms(c)
DAV:   1    -0.613793596179E+02   -0.46484E-02   -0.91741E-01   384   0.666E+00    0.301E-01
DAV:   2    -0.613786700162E+02    0.68960E-03   -0.19350E-02   512   0.940E-01    0.175E-01
DAV:   3    -0.613779116038E+02    0.75841E-03   -0.29728E-03   512   0.334E-01    0.722E-02
DAV:   4    -0.613779111882E+02    0.41559E-06   -0.24328E-04   376   0.103E-01
  64 F= -.61377911E+02 E0= -.61377897E+02  d E =-.789908E-02
 curvature:  -0.65 expect dE=-0.225E-01 dE for cont linesearch -0.284E-04
 trial: gam= 1.66081 g(F)=  0.282E-01 g(S)=  0.643E-02 ort = 0.129E-02 (trialstep = 0.974E-01)
 search vector abs. value=  0.144E+00
 bond charge predicted
       N       E                     dE             d eps       ncg     rms          rms(c)
DAV:   1    -0.613815247169E+02   -0.36131E-02   -0.14149E-01   384   0.252E+00    0.117E-01
DAV:   2    -0.613813732084E+02    0.15151E-03   -0.28477E-03   512   0.348E-01    0.665E-02
DAV:   3    -0.613812633892E+02    0.10982E-03   -0.49381E-04   480   0.136E-01    0.215E-02
DAV:   4    -0.613812882570E+02   -0.24868E-04   -0.32183E-05   312   0.405E-02
  65 F= -.61381288E+02 E0= -.61381274E+02  d E =-.337707E-02
 ZBRENT: can't locate minimum, use default step
 trial-energy change:   -0.003377  1 .order   -0.003385   -0.003582   -0.003189
 step:   0.3895(harm=  0.8867)  dis= 0.01058  next Energy=   -61.394218 (dE=-0.163E-01)
 bond charge predicted
       N       E                     dE             d eps       ncg     rms          rms(c)
DAV:   1    -0.613918082491E+02   -0.10545E-01   -0.12779E+00   384   0.754E+00    0.355E-01
DAV:   2    -0.613904227323E+02    0.13855E-02   -0.26049E-02   512   0.106E+00    0.198E-01
DAV:   3    -0.613893235776E+02    0.10992E-02   -0.43232E-03   512   0.410E-01    0.638E-02
DAV:   4    -0.613893347066E+02   -0.11129E-04   -0.31162E-04   448   0.120E-01
  66 F= -.61389335E+02 E0= -.61389322E+02  d E =-.114235E-01
 curvature:  -1.05 expect dE=-0.204E-01 dE for cont linesearch -0.406E-02
 ZBRENT: increasing intervall
 opt :   0.9738  next Energy=   -61.397826 (dE=-0.199E-01)
 bond charge predicted
       N       E                     dE             d eps       ncg     rms          rms(c)
DAV:   1    -0.614070318401E+02   -0.17708E-01   -0.51104E+00   384   0.150E+01    0.722E-01
DAV:   2    -0.614012607155E+02    0.57711E-02   -0.10616E-01   512   0.218E+00    0.400E-01
DAV:   3    -0.613969989801E+02    0.42617E-02   -0.16890E-02   512   0.821E-01    0.135E-01
DAV:   4    -0.613969815729E+02    0.17407E-04   -0.12811E-03   448   0.241E-01    0.653E-02
DAV:   5    -0.613971268394E+02   -0.14527E-03   -0.22323E-04   296   0.910E-02    0.205E-02
DAV:   6    -0.613972581863E+02   -0.13135E-03   -0.47259E-05   304   0.537E-02    0.981E-03
DAV:   7    -0.613974253254E+02   -0.16714E-03   -0.51003E-05   312   0.392E-02    0.797E-03
DAV:   8    -0.613975494999E+02   -0.12417E-03   -0.29926E-05   360   0.311E-02    0.417E-03
DAV:   9    -0.613976712174E+02   -0.12172E-03   -0.45833E-05   344   0.254E-02    0.315E-03
DAV:  10    -0.613977052742E+02   -0.34057E-04   -0.80070E-06   376   0.149E-02
  67 F= -.61397705E+02 E0= -.61397695E+02  d E =-.197941E-01
 curvature:  -2.19 expect dE=-0.801E-01 dE for cont linesearch -0.242E-03
 trial: gam= 0.98097 g(F)=  0.344E-01 g(S)=  0.220E-02 ort = 0.399E-02 (trialstep = 0.215E+00)
 search vector abs. value=  0.183E+00
 bond charge predicted
       N       E                     dE             d eps       ncg     rms          rms(c)
DAV:   1    -0.614059232889E+02   -0.82521E-02   -0.86876E-01   384   0.625E+00    0.282E-01
DAV:   2    -0.614052816211E+02    0.64167E-03   -0.17529E-02   488   0.848E-01    0.156E-01
DAV:   3    -0.614046041274E+02    0.67749E-03   -0.26405E-03   520   0.322E-01    0.462E-02
DAV:   4    -0.614045954185E+02    0.87089E-05   -0.15806E-04   424   0.841E-02
  68 F= -.61404595E+02 E0= -.61404589E+02  d E =-.689014E-02
 trial-energy change:   -0.006890  1 .order   -0.006987   -0.008691   -0.005283
 step:   0.5472(harm=  0.5472)  dis= 0.01716  next Energy=   -61.408786 (dE=-0.111E-01)
 bond charge predicted
       N       E                     dE             d eps       ncg     rms          rms(c)
DAV:   1    -0.614116141388E+02   -0.70100E-02   -0.20876E+00   384   0.968E+00    0.440E-01
DAV:   2    -0.614099696473E+02    0.16445E-02   -0.42246E-02   504   0.132E+00    0.244E-01
DAV:   3    -0.614084012610E+02    0.15684E-02   -0.62615E-03   504   0.500E-01    0.741E-02
DAV:   4    -0.614084251230E+02   -0.23862E-04   -0.40128E-04   416   0.133E-01
  69 F= -.61408425E+02 E0= -.61408423E+02  d E =-.107198E-01
 curvature:  -1.24 expect dE=-0.467E-01 dE for cont linesearch -0.167E-07
 trial: gam= 1.17867 g(F)=  0.353E-01 g(S)=  0.247E-02 ort =-0.497E-04 (trialstep = 0.176E+00)
 search vector abs. value=  0.292E+00
 bond charge predicted
       N       E                     dE             d eps       ncg     rms          rms(c)
DAV:   1    -0.614148865070E+02   -0.64852E-02   -0.92360E-01   384   0.646E+00    0.276E-01
DAV:   2    -0.614146814955E+02    0.20501E-03   -0.18460E-02   544   0.869E-01    0.159E-01
DAV:   3    -0.614140892357E+02    0.59226E-03   -0.21275E-03   464   0.303E-01    0.484E-02
DAV:   4    -0.614141182304E+02   -0.28995E-04   -0.13564E-04   288   0.844E-02
  70 F= -.61414118E+02 E0= -.61414116E+02  d E =-.569311E-02
 trial-energy change:   -0.005693  1 .order   -0.005645   -0.006641   -0.004649
 step:   0.5875(harm=  0.5875)  dis= 0.02393  next Energy=   -61.419492 (dE=-0.111E-01)
 bond charge predicted
       N       E                     dE             d eps       ncg     rms          rms(c)
DAV:   1    -0.614246829356E+02   -0.10594E-01   -0.50232E+00   384   0.150E+01    0.654E-01
DAV:   2    -0.614233948801E+02    0.12881E-02   -0.10130E-01   544   0.207E+00    0.373E-01
DAV:   3    -0.614201450930E+02    0.32498E-02   -0.11270E-02   504   0.716E-01    0.115E-01
DAV:   4    -0.614200933810E+02    0.51712E-04   -0.82930E-04   408   0.193E-01
  71 F= -.61420093E+02 E0= -.61420092E+02  d E =-.116683E-01
 curvature:  -2.28 expect dE=-0.984E-01 dE for cont linesearch -0.700E-04
 trial: gam= 0.89955 g(F)=  0.295E-01 g(S)=  0.137E-01 ort = 0.300E-02 (trialstep = 0.259E+00)
 search vector abs. value=  0.285E+00
 bond charge predicted
       N       E                     dE             d eps       ncg     rms          rms(c)
DAV:   1    -0.614309678684E+02   -0.10823E-01   -0.19525E+00   384   0.937E+00    0.403E-01
DAV:   2    -0.614305136347E+02    0.45423E-03   -0.38362E-02   544   0.133E+00    0.238E-01
DAV:   3    -0.614290681940E+02    0.14454E-02   -0.47011E-03   504   0.429E-01    0.847E-02
DAV:   4    -0.614291012232E+02   -0.33029E-04   -0.40636E-04   384   0.136E-01
  72 F= -.61429101E+02 E0= -.61429098E+02  d E =-.900784E-02
 trial-energy change:   -0.009008  1 .order   -0.009305   -0.011874   -0.006735
 step:   0.5973(harm=  0.5973)  dis= 0.02453  next Energy=   -61.433811 (dE=-0.137E-01)
 bond charge predicted
       N       E                     dE             d eps       ncg     rms          rms(c)
DAV:   1    -0.614364172358E+02   -0.73490E-02   -0.33501E+00   384   0.123E+01    0.529E-01
DAV:   2    -0.614355903373E+02    0.82690E-03   -0.66438E-02   560   0.175E+00    0.310E-01
DAV:   3    -0.614330860466E+02    0.25043E-02   -0.78378E-03   512   0.559E-01    0.113E-01
DAV:   4    -0.614330542481E+02    0.31799E-04   -0.70951E-04   408   0.177E-01
  73 F= -.61433054E+02 E0= -.61433048E+02  d E =-.129609E-01
 curvature:  -1.85 expect dE=-0.816E-01 dE for cont linesearch -0.676E-05
 trial: gam= 1.16489 g(F)=  0.383E-01 g(S)=  0.577E-02 ort = 0.102E-02 (trialstep = 0.215E+00)
 search vector abs. value=  0.433E+00
 bond charge predicted
       N       E                     dE             d eps       ncg     rms          rms(c)
DAV:   1    -0.614418078452E+02   -0.87218E-02   -0.19097E+00   384   0.924E+00    0.424E-01
DAV:   2    -0.614413300831E+02    0.47776E-03   -0.38723E-02   576   0.132E+00    0.245E-01
DAV:   3    -0.614398622122E+02    0.14679E-02   -0.40652E-03   488   0.405E-01    0.850E-02
DAV:   4    -0.614398659268E+02   -0.37146E-05   -0.37083E-04   376   0.132E-01
  74 F= -.61439866E+02 E0= -.61439858E+02  d E =-.681168E-02
 trial-energy change:   -0.006812  1 .order   -0.007148   -0.009711   -0.004584
 step:   0.4066(harm=  0.4066)  dis= 0.02004  next Energy=   -61.442252 (dE=-0.920E-02)
 bond charge predicted
       N       E                     dE             d eps       ncg     rms          rms(c)
DAV:   1    -0.614433272857E+02   -0.34651E-02   -0.15288E+00   384   0.827E+00    0.378E-01
DAV:   2    -0.614429501791E+02    0.37711E-03   -0.31064E-02   576   0.118E+00    0.218E-01
DAV:   3    -0.614417797346E+02    0.11704E-02   -0.32037E-03   496   0.358E-01    0.763E-02
DAV:   4    -0.614417850053E+02   -0.52707E-05   -0.28313E-04   320   0.118E-01
  75 F= -.61441785E+02 E0= -.61441776E+02  d E =-.873076E-02
 curvature:  -1.95 expect dE=-0.789E-01 dE for cont linesearch -0.221E-05
 trial: gam= 0.84989 g(F)=  0.353E-01 g(S)=  0.526E-02 ort = 0.702E-03 (trialstep = 0.253E+00)
 search vector abs. value=  0.354E+00
 bond charge predicted
       N       E                     dE             d eps       ncg     rms          rms(c)
DAV:   1    -0.614527840220E+02   -0.11004E-01   -0.19857E+00   384   0.937E+00    0.474E-01
DAV:   2    -0.614517298900E+02    0.10541E-02   -0.40801E-02   520   0.134E+00    0.267E-01
DAV:   3    -0.614502081617E+02    0.15217E-02   -0.45441E-03   464   0.441E-01    0.860E-02
DAV:   4    -0.614501946402E+02    0.13522E-04   -0.39020E-04   352   0.133E-01
  76 F= -.61450195E+02 E0= -.61450188E+02  d E =-.840963E-02
 trial-energy change:   -0.008410  1 .order   -0.008619   -0.010409   -0.006830
 step:   0.7361(harm=  0.7361)  dis= 0.02881  next Energy=   -61.456923 (dE=-0.151E-01)
 bond charge predicted
       N       E                     dE             d eps       ncg     rms          rms(c)
DAV:   1    -0.614659351620E+02   -0.15727E-01   -0.72314E+00   384   0.178E+01    0.916E-01
DAV:   2    -0.614619708573E+02    0.39643E-02   -0.15077E-01   528   0.261E+00    0.516E-01
DAV:   3    -0.614564193582E+02    0.55515E-02   -0.16298E-02   480   0.859E-01    0.170E-01
DAV:   4    -0.614561618434E+02    0.25751E-03   -0.14410E-03   464   0.252E-01    0.639E-02
DAV:   5    -0.614562896210E+02   -0.12778E-03   -0.15437E-04   288   0.853E-02    0.249E-02
DAV:   6    -0.614565003032E+02   -0.21068E-03   -0.68502E-05   296   0.579E-02    0.111E-02
DAV:   7    -0.614567752981E+02   -0.27499E-03   -0.89105E-05   328   0.492E-02    0.937E-03
DAV:   8    -0.614569381839E+02   -0.16289E-03   -0.53280E-05   352   0.339E-02    0.572E-03
DAV:   9    -0.614570394393E+02   -0.10126E-03   -0.27359E-05   344   0.229E-02    0.298E-03
DAV:  10    -0.614570817081E+02   -0.42269E-04   -0.84248E-06   368   0.151E-02
  77 F= -.61457082E+02 E0= -.61457079E+02  d E =-.152967E-01
 curvature:  -3.17 expect dE=-0.848E-01 dE for cont linesearch -0.584E-07
 trial: gam= 0.69418 g(F)=  0.206E-01 g(S)=  0.615E-02 ort =-0.808E-04 (trialstep = 0.350E+00)
 search vector abs. value=  0.197E+00
 bond charge predicted
       N       E                     dE             d eps       ncg     rms          rms(c)
DAV:   1    -0.614660016763E+02   -0.89622E-02   -0.21212E+00   384   0.951E+00    0.480E-01
DAV:   2    -0.614647545972E+02    0.12471E-02   -0.45541E-02   504   0.142E+00    0.275E-01
DAV:   3    -0.614629293036E+02    0.18253E-02   -0.52801E-03   512   0.475E-01    0.880E-02
DAV:   4    -0.614628030606E+02    0.12624E-03   -0.51926E-04   496   0.153E-01    0.359E-02
DAV:   5    -0.614628232303E+02   -0.20170E-04   -0.61457E-05   328   0.518E-02
  78 F= -.61462823E+02 E0= -.61462820E+02  d E =-.574152E-02
 trial-energy change:   -0.005742  1 .order   -0.006048   -0.009327   -0.002769
 step:   0.4973(harm=  0.4973)  dis= 0.01066  next Energy=   -61.463714 (dE=-0.663E-02)
 bond charge predicted
       N       E                     dE             d eps       ncg     rms          rms(c)
DAV:   1    -0.614639737831E+02   -0.11707E-02   -0.37965E-01   384   0.403E+00    0.202E-01
DAV:   2    -0.614637059105E+02    0.26787E-03   -0.82015E-03   520   0.598E-01    0.116E-01
DAV:   3    -0.614633754417E+02    0.33047E-03   -0.97854E-04   504   0.199E-01    0.373E-02
DAV:   4    -0.614633838645E+02   -0.84229E-05   -0.85083E-05   296   0.658E-02
  79 F= -.61463384E+02 E0= -.61463381E+02  d E =-.630216E-02
 curvature:  -1.84 expect dE=-0.454E-01 dE for cont linesearch -0.107E-08
 trial: gam= 0.92551 g(F)=  0.224E-01 g(S)=  0.226E-02 ort =-0.107E-04 (trialstep = 0.379E+00)
 search vector abs. value=  0.194E+00
 bond charge predicted
       N       E                     dE             d eps       ncg     rms          rms(c)
DAV:   1    -0.614735990522E+02   -0.10224E-01   -0.24337E+00   384   0.101E+01    0.550E-01
DAV:   2    -0.614706898407E+02    0.29092E-02   -0.51592E-02   504   0.153E+00    0.313E-01
DAV:   3    -0.614680897183E+02    0.26001E-02   -0.75887E-03   512   0.542E-01    0.100E-01
DAV:   4    -0.614680330304E+02    0.56688E-04   -0.59801E-04   464   0.166E-01
  80 F= -.61468033E+02 E0= -.61468031E+02  d E =-.464917E-02
 trial-energy change:   -0.004649  1 .order   -0.005319   -0.009351   -0.001288
 step:   0.4398(harm=  0.4398)  dis= 0.00836  next Energy=   -61.468806 (dE=-0.542E-02)
 bond charge predicted
       N       E                     dE             d eps       ncg     rms          rms(c)
DAV:   1    -0.614682884914E+02   -0.19877E-03   -0.62319E-02   384   0.162E+00    0.876E-02
DAV:   2    -0.614682365724E+02    0.51919E-04   -0.13629E-03   496   0.247E-01    0.513E-02
DAV:   3    -0.614682263464E+02    0.10226E-04   -0.20022E-04   264   0.895E-02
  81 F= -.61468226E+02 E0= -.61468224E+02  d E =-.484248E-02
 curvature:  -1.73 expect dE=-0.310E-01 dE for cont linesearch -0.130E-04
 trial: gam= 0.73691 g(F)=  0.100E-01 g(S)=  0.792E-02 ort =-0.121E-02 (trialstep = 0.391E+00)
 search vector abs. value=  0.121E+00
 bond charge predicted
       N       E                     dE             d eps       ncg     rms          rms(c)
DAV:   1    -0.614771227395E+02   -0.88862E-02   -0.16209E+00   384   0.811E+00    0.474E-01
DAV:   2    -0.614752587351E+02    0.18640E-02   -0.34620E-02   488   0.118E+00    0.268E-01
DAV:   3    -0.614735170530E+02    0.17417E-02   -0.46573E-03   504   0.446E-01    0.725E-02
DAV:   4    -0.614735007141E+02    0.16339E-04   -0.33600E-04   392   0.126E-01
  82 F= -.61473501E+02 E0= -.61473498E+02  d E =-.527437E-02
 trial-energy change:   -0.005274  1 .order   -0.005456   -0.006667   -0.004245
 step:   1.0769(harm=  1.0769)  dis= 0.02000  next Energy=   -61.477401 (dE=-0.917E-02)
 bond charge predicted
       N       E                     dE             d eps       ncg     rms          rms(c)
DAV:   1    -0.614880341225E+02   -0.14517E-01   -0.49650E+00   384   0.142E+01    0.837E-01
DAV:   2    -0.614820968630E+02    0.59373E-02   -0.10738E-01   496   0.209E+00    0.473E-01
DAV:   3    -0.614768058937E+02    0.52910E-02   -0.14412E-02   504   0.795E-01    0.130E-01
DAV:   4    -0.614766722698E+02    0.13362E-03   -0.10860E-03   464   0.222E-01    0.494E-02
DAV:   5    -0.614768043329E+02   -0.13206E-03   -0.13887E-04   280   0.802E-02    0.195E-02
DAV:   6    -0.614770092663E+02   -0.20493E-03   -0.63966E-05   320   0.551E-02    0.963E-03
DAV:   7    -0.614772342901E+02   -0.22502E-03   -0.60608E-05   336   0.431E-02    0.710E-03
DAV:   8    -0.614774046604E+02   -0.17037E-03   -0.50159E-05   352   0.312E-02    0.481E-03
DAV:   9    -0.614774810100E+02   -0.76350E-04   -0.16219E-05   360   0.182E-02
  83 F= -.61477481E+02 E0= -.61477479E+02  d E =-.925466E-02
 curvature:  -3.84 expect dE=-0.130E+00 dE for cont linesearch -0.684E-05
 trial: gam= 1.77964 g(F)=  0.325E-01 g(S)=  0.141E-02 ort =-0.465E-03 (trialstep = 0.154E+00)
 search vector abs. value=  0.417E+00
 bond charge predicted
       N       E                     dE             d eps       ncg     rms          rms(c)
DAV:   1    -0.614833680631E+02   -0.59634E-02   -0.91795E-01   384   0.607E+00    0.341E-01
DAV:   2    -0.614823693493E+02    0.99871E-03   -0.19878E-02   464   0.898E-01    0.193E-01
DAV:   3    -0.614813703070E+02    0.99904E-03   -0.29041E-03   488   0.343E-01    0.543E-02
DAV:   4    -0.614813283387E+02    0.41968E-04   -0.18854E-04   440   0.940E-02
  84 F= -.61481328E+02 E0= -.61481326E+02  d E =-.384733E-02
 trial-energy change:   -0.003847  1 .order   -0.003960   -0.005093   -0.002827
 step:   0.3460(harm=  0.3460)  dis= 0.01454  next Energy=   -61.483204 (dE=-0.572E-02)
 bond charge predicted
       N       E                     dE             d eps       ncg     rms          rms(c)
DAV:   1    -0.614860677414E+02   -0.46974E-02   -0.14298E+00   384   0.756E+00    0.426E-01
DAV:   2    -0.614844221045E+02    0.16456E-02   -0.31017E-02   488   0.112E+00    0.242E-01
DAV:   3    -0.614828713396E+02    0.15508E-02   -0.45542E-03   504   0.431E-01    0.688E-02
DAV:   4    -0.614828474881E+02    0.23852E-04   -0.30061E-04   408   0.118E-01
  85 F= -.61482847E+02 E0= -.61482845E+02  d E =-.536648E-02
[...]
 step:   0.9248(harm=  1.0241)  dis= 0.06071  next Energy=   -61.537464 (dE=-0.106E-01)
 bond charge predicted
       N       E                     dE             d eps       ncg     rms          rms(c)
DAV:   1    -0.615687274662E+02   -0.37969E-01   -0.22905E+01   384   0.280E+01    0.138E+00
DAV:   2    -0.615531752681E+02    0.15552E-01   -0.49367E-01   488   0.448E+00    0.761E-01
DAV:   3    -0.615347878995E+02    0.18387E-01   -0.65459E-02   520   0.161E+00    0.220E-01
DAV:   4    -0.615342802324E+02    0.50767E-03   -0.31198E-03   472   0.367E-01    0.980E-02
DAV:   5    -0.615345414358E+02   -0.26120E-03   -0.60712E-04   424   0.151E-01    0.301E-02
DAV:   6    -0.615349671492E+02   -0.42571E-03   -0.11968E-04   328   0.747E-02    0.162E-02
DAV:   7    -0.615354217120E+02   -0.45456E-03   -0.13626E-04   368   0.580E-02    0.135E-02
DAV:   8    -0.615358243057E+02   -0.40259E-03   -0.12510E-04   392   0.507E-02    0.605E-03
DAV:   9    -0.615359686502E+02   -0.14434E-03   -0.33723E-05   376   0.254E-02    0.399E-03
DAV:  10    -0.615360992923E+02   -0.13064E-03   -0.39038E-05   368   0.202E-02    0.155E-03
DAV:  11    -0.615361248771E+02   -0.25585E-04   -0.70401E-06   376   0.104E-02
 101 F= -.61536125E+02 E0= -.61536125E+02  d E =-.926561E-02
 curvature:  -9.24 expect dE=-0.351E+00 dE for cont linesearch -0.616E-04
 trial: gam= 1.76144 g(F)=  0.358E-01 g(S)=  0.213E-02 ort =-0.159E-02 (trialstep = 0.116E+00)
 search vector abs. value=  0.121E+01
 bond charge predicted
       N       E                     dE             d eps       ncg     rms          rms(c)
DAV:   1    -0.615421807942E+02   -0.60815E-02   -0.20148E+00   384   0.821E+00    0.387E-01
DAV:   2    -0.615410099978E+02    0.11708E-02   -0.38099E-02   472   0.120E+00    0.222E-01
DAV:   3    -0.615392780388E+02    0.17320E-02   -0.51937E-03   504   0.462E-01    0.605E-02
DAV:   4    -0.615392084327E+02    0.69606E-04   -0.26888E-04   440   0.113E-01
 102 F= -.61539208E+02 E0= -.61539208E+02  d E =-.308356E-02
 trial-energy change:   -0.003084  1 .order   -0.003472   -0.004078   -0.002866
 step:   0.3903(harm=  0.3903)  dis= 0.04518  next Energy=   -61.542984 (dE=-0.686E-02)
 bond charge predicted
       N       E                     dE             d eps       ncg     rms          rms(c)
DAV:   1    -0.615569343404E+02   -0.17656E-01   -0.11286E+01   384   0.195E+01    0.934E-01
DAV:   2    -0.615503584189E+02    0.65759E-02   -0.22218E-01   480   0.296E+00    0.526E-01
DAV:   3    -0.615414174957E+02    0.89409E-02   -0.29132E-02   512   0.109E+00    0.146E-01
DAV:   4    -0.615411745136E+02    0.24298E-03   -0.15761E-03   504   0.267E-01    0.670E-02
DAV:   5    -0.615413541057E+02   -0.17959E-03   -0.29292E-04   344   0.108E-01    0.216E-02
DAV:   6    -0.615416445117E+02   -0.29041E-03   -0.75590E-05   344   0.658E-02    0.113E-02
DAV:   7    -0.615419651802E+02   -0.32067E-03   -0.78414E-05   352   0.512E-02    0.911E-03
DAV:   8    -0.615422079229E+02   -0.24274E-03   -0.53813E-05   376   0.366E-02    0.439E-03
DAV:   9    -0.615423643427E+02   -0.15642E-03   -0.39279E-05   376   0.249E-02    0.250E-03
DAV:  10    -0.615424481187E+02   -0.83776E-04   -0.22123E-05   368   0.176E-02
 103 F= -.61542448E+02 E0= -.61542448E+02  d E =-.632324E-02
 curvature:  -6.72 expect dE=-0.182E+00 dE for cont linesearch -0.531E-04
 trial: gam= 0.65667 g(F)=  0.230E-01 g(S)=  0.414E-02 ort =-0.309E-02 (trialstep = 0.171E+00)
 search vector abs. value=  0.545E+00
 bond charge predicted
       N       E                     dE             d eps       ncg     rms          rms(c)
DAV:   1    -0.615486492011E+02   -0.62849E-02   -0.19281E+00   384   0.814E+00    0.383E-01
DAV:   2    -0.615475497198E+02    0.10995E-02   -0.35968E-02   464   0.118E+00    0.220E-01
DAV:   3    -0.615458973156E+02    0.16524E-02   -0.53211E-03   496   0.468E-01    0.624E-02
DAV:   4    -0.615458413222E+02    0.55993E-04   -0.30078E-04   432   0.118E-01
 104 F= -.61545841E+02 E0= -.61545841E+02  d E =-.339320E-02
 trial-energy change:   -0.003393  1 .order   -0.003738   -0.004291   -0.003186
 step:   0.6637(harm=  0.6637)  dis= 0.04874  next Energy=   -61.550780 (dE=-0.833E-02)
 bond charge predicted
       N       E                     dE             d eps       ncg     rms          rms(c)
DAV:   1    -0.615705757473E+02   -0.24678E-01   -0.16094E+01   384   0.236E+01    0.114E+00
DAV:   2    -0.615613434716E+02    0.92323E-02   -0.31681E-01   488   0.356E+00    0.636E-01
DAV:   3    -0.615489713505E+02    0.12372E-01   -0.43860E-02   544   0.133E+00    0.188E-01
DAV:   4    -0.615485904649E+02    0.38089E-03   -0.22450E-03   488   0.309E-01    0.866E-02
DAV:   5    -0.615487460236E+02   -0.15556E-03   -0.45835E-04   456   0.130E-01    0.254E-02
DAV:   6    -0.615490743945E+02   -0.32837E-03   -0.75854E-05   352   0.608E-02    0.125E-02
DAV:   7    -0.615494590698E+02   -0.38468E-03   -0.92495E-05   376   0.470E-02    0.105E-02
DAV:   8    -0.615497890067E+02   -0.32994E-03   -0.81002E-05   376   0.391E-02    0.482E-03
DAV:   9    -0.615499417263E+02   -0.15272E-03   -0.34374E-05   376   0.222E-02    0.290E-03
DAV:  10    -0.615500539776E+02   -0.11225E-03   -0.35671E-05   360   0.178E-02    0.138E-03
DAV:  11    -0.615500616621E+02   -0.76845E-05   -0.28944E-06   384   0.830E-03
 105 F= -.61550062E+02 E0= -.61550061E+02  d E =-.761354E-02
 curvature:  -7.21 expect dE=-0.167E+00 dE for cont linesearch -0.821E-04
 trial: gam= 0.87739 g(F)=  0.211E-01 g(S)=  0.210E-02 ort =-0.249E-02 (trialstep = 0.269E+00)
 search vector abs. value=  0.439E+00
 bond charge predicted
       N       E                     dE             d eps       ncg     rms          rms(c)
DAV:   1    -0.615572681780E+02   -0.72142E-02   -0.37632E+00   384   0.115E+01    0.527E-01
DAV:   2    -0.615558982536E+02    0.13699E-02   -0.69336E-02   472   0.166E+00    0.303E-01
DAV:   3    -0.615528925158E+02    0.30057E-02   -0.88965E-03   496   0.615E-01    0.796E-02
DAV:   4    -0.615528002145E+02    0.92301E-04   -0.51676E-04   464   0.152E-01
 106 F= -.61552800E+02 E0= -.61552800E+02  d E =-.273855E-02
 trial-energy change:   -0.002739  1 .order   -0.003355   -0.005670   -0.001040
 step:   0.3300(harm=  0.3300)  dis= 0.01983  next Energy=   -61.553534 (dE=-0.347E-02)
 bond charge predicted
       N       E                     dE             d eps       ncg     rms          rms(c)
DAV:   1    -0.615531692777E+02   -0.27676E-03   -0.19068E-01   384   0.261E+00    0.116E-01
DAV:   2    -0.615530863517E+02    0.82926E-04   -0.36392E-03   504   0.374E-01    0.682E-02
DAV:   3    -0.615529607796E+02    0.12557E-03   -0.49777E-04   456   0.144E-01    0.191E-02
DAV:   4    -0.615530234082E+02   -0.62629E-04   -0.29833E-05   336   0.387E-02
 107 F= -.61553023E+02 E0= -.61553023E+02  d E =-.296175E-02
 curvature:  -3.44 expect dE=-0.546E-01 dE for cont linesearch -0.294E-05
 trial: gam= 0.59978 g(F)=  0.128E-01 g(S)=  0.307E-02 ort =-0.612E-03 (trialstep = 0.282E+00)
 search vector abs. value=  0.173E+00
 bond charge predicted
       N       E                     dE             d eps       ncg     rms          rms(c)
DAV:   1    -0.615584593743E+02   -0.54986E-02   -0.14807E+00   384   0.730E+00    0.336E-01
DAV:   2    -0.615578333899E+02    0.62598E-03   -0.26164E-02   480   0.102E+00    0.191E-01
DAV:   3    -0.615565726477E+02    0.12607E-02   -0.34119E-03   472   0.359E-01    0.470E-02
DAV:   4    -0.615565936525E+02   -0.21005E-04   -0.19326E-04   400   0.968E-02
 108 F= -.61556594E+02 E0= -.61556593E+02  d E =-.357024E-02
 trial-energy change:   -0.003570  1 .order   -0.003789   -0.004365   -0.003213
 step:   1.0668(harm=  1.0668)  dis= 0.03280  next Energy=   -61.561292 (dE=-0.827E-02)
 bond charge predicted
       N       E                     dE             d eps       ncg     rms          rms(c)
DAV:   1    -0.615729425244E+02   -0.16370E-01   -0.11561E+01   384   0.205E+01    0.957E-01
DAV:   2    -0.615689280732E+02    0.40145E-02   -0.21796E-01   496   0.298E+00    0.540E-01
DAV:   3    -0.615597918279E+02    0.91362E-02   -0.26845E-02   480   0.101E+00    0.135E-01
DAV:   4    -0.615596828563E+02    0.10897E-03   -0.15652E-03   472   0.266E-01    0.636E-02
DAV:   5    -0.615599568103E+02   -0.27395E-03   -0.26766E-04   344   0.111E-01    0.203E-02
DAV:   6    -0.615603015273E+02   -0.34472E-03   -0.86474E-05   344   0.629E-02    0.116E-02
DAV:   7    -0.615607048228E+02   -0.40330E-03   -0.89979E-05   344   0.483E-02    0.735E-03
DAV:   8    -0.615609928889E+02   -0.28807E-03   -0.75299E-05   368   0.351E-02    0.409E-03
DAV:   9    -0.615611446253E+02   -0.15174E-03   -0.39866E-05   368   0.216E-02    0.221E-03
DAV:  10    -0.615612002566E+02   -0.55631E-04   -0.17469E-05   360   0.145E-02
 109 F= -.61561200E+02 E0= -.61561200E+02  d E =-.817685E-02
 curvature:  -5.95 expect dE=-0.258E+00 dE for cont linesearch -0.186E-04
 trial: gam= 2.87090 g(F)=  0.404E-01 g(S)=  0.292E-02 ort =-0.735E-03 (trialstep = 0.518E-01)
 search vector abs. value=  0.146E+01
 bond charge predicted
       N       E                     dE             d eps       ncg     rms          rms(c)
DAV:   1    -0.615637096744E+02   -0.25650E-02   -0.41575E-01   416   0.389E+00    0.181E-01
DAV:   2    -0.615635536198E+02    0.15605E-03   -0.72804E-03   464   0.537E-01    0.103E-01
DAV:   3    -0.615631395592E+02    0.41406E-03   -0.95608E-04   480   0.186E-01    0.254E-02
DAV:   4    -0.615631272493E+02    0.12310E-04   -0.51108E-05   352   0.528E-02
 110 F= -.61563127E+02 E0= -.61563127E+02  d E =-.192699E-02
 ZBRENT: can't locate minimum, use default step
 trial-energy change:   -0.001927  1 .order   -0.002037   -0.002136   -0.001938
 step:   0.2072(harm=  0.5573)  dis= 0.01709  next Energy=   -61.572694 (dE=-0.115E-01)
 bond charge predicted
       N       E                     dE             d eps       ncg     rms          rms(c)
DAV:   1    -0.615723567543E+02   -0.92172E-02   -0.37434E+00   384   0.117E+01    0.548E-01
DAV:   2    -0.615706948572E+02    0.16619E-02   -0.66680E-02   472   0.164E+00    0.312E-01
DAV:   3    -0.615674516713E+02    0.32432E-02   -0.86430E-03   496   0.562E-01    0.775E-02
DAV:   4    -0.615674248034E+02    0.26868E-04   -0.52164E-04   472   0.158E-01
 111 F= -.61567425E+02 E0= -.61567425E+02  d E =-.622455E-02
 curvature:  -5.15 expect dE=-0.110E+00 dE for cont linesearch -0.268E-02
 ZBRENT: increasing intervall
 opt :   0.5179  next Energy=   -61.572968 (dE=-0.118E-01)
 bond charge predicted
       N       E                     dE             d eps       ncg     rms          rms(c)
DAV:   1    -0.615887820904E+02   -0.21330E-01   -0.15063E+01   384   0.236E+01    0.112E+00
DAV:   2    -0.615831296315E+02    0.56525E-02   -0.28954E-01   480   0.344E+00    0.631E-01
DAV:   3    -0.615708393124E+02    0.12290E-01   -0.35382E-02   480   0.116E+00    0.162E-01
DAV:   4    -0.615706649153E+02    0.17440E-03   -0.21956E-03   504   0.316E-01    0.757E-02
DAV:   5    -0.615710294695E+02   -0.36455E-03   -0.43004E-04   432   0.130E-01    0.264E-02
DAV:   6    -0.615714347226E+02   -0.40525E-03   -0.10884E-04   344   0.698E-02    0.140E-02
DAV:   7    -0.615718789412E+02   -0.44422E-03   -0.95000E-05   344   0.515E-02    0.104E-02
DAV:   8    -0.615723229403E+02   -0.44400E-03   -0.12371E-04   392   0.468E-02    0.497E-03
DAV:   9    -0.615725123090E+02   -0.18937E-03   -0.45113E-05   360   0.239E-02    0.317E-03
DAV:  10    -0.615726089216E+02   -0.96613E-04   -0.32257E-05   360   0.174E-02
 112 F= -.61572609E+02 E0= -.61572609E+02  d E =-.114087E-01
 curvature: -10.63 expect dE=-0.163E+00 dE for cont linesearch -0.310E-04
 trial: gam= 0.22697 g(F)=  0.112E-01 g(S)=  0.413E-02 ort = 0.206E-02 (trialstep = 0.145E+00)
 search vector abs. value=  0.917E-01
 bond charge predicted
       N       E                     dE             d eps       ncg     rms          rms(c)
DAV:   1    -0.615748718813E+02   -0.23596E-02   -0.18833E-01   408   0.277E+00    0.138E-01
DAV:   2    -0.615747628718E+02    0.10901E-03   -0.37595E-03   488   0.414E-01    0.808E-02
DAV:   3    -0.615745582480E+02    0.20462E-03   -0.71635E-04   464   0.168E-01    0.230E-02
DAV:   4    -0.615745521812E+02    0.60668E-05   -0.63283E-05   360   0.579E-02
 113 F= -.61574552E+02 E0= -.61574552E+02  d E =-.194326E-02
 trial-energy change:   -0.001943  1 .order   -0.001963   -0.002286   -0.001640
 step:   0.5132(harm=  0.5132)  dis= 0.00847  next Energy=   -61.576654 (dE=-0.405E-02)
 bond charge predicted
       N       E                     dE             d eps       ncg     rms          rms(c)
DAV:   1    -0.615785982351E+02   -0.40400E-02   -0.12142E+00   384   0.703E+00    0.351E-01
DAV:   2    -0.615777216857E+02    0.87655E-03   -0.24212E-02   464   0.106E+00    0.206E-01
DAV:   3    -0.615763851299E+02    0.13366E-02   -0.47442E-03   480   0.431E-01    0.599E-02
DAV:   4    -0.615763651579E+02    0.19972E-04   -0.44800E-04   440   0.149E-01
 114 F= -.61576365E+02 E0= -.61576365E+02  d E =-.375624E-02
 curvature:  -1.49 expect dE=-0.346E-01 dE for cont linesearch -0.167E-05
 trial: gam= 1.57120 g(F)=  0.206E-01 g(S)=  0.258E-02 ort = 0.321E-03 (trialstep = 0.800E-01)
 search vector abs. value=  0.250E+00
 bond charge predicted
       N       E                     dE             d eps       ncg     rms          rms(c)
DAV:   1    -0.615783138622E+02   -0.19287E-02   -0.14589E-01   384   0.245E+00    0.121E-01
DAV:   2    -0.615782219600E+02    0.91902E-04   -0.27563E-03   520   0.346E-01    0.715E-02
DAV:   3    -0.615780886314E+02    0.13333E-03   -0.44004E-04   496   0.132E-01    0.185E-02
DAV:   4    -0.615781326908E+02   -0.44059E-04   -0.35550E-05   304   0.452E-02
 115 F= -.61578133E+02 E0= -.61578133E+02  d E =-.176753E-02
 ZBRENT: can't locate minimum, use default step
 trial-energy change:   -0.001768  1 .order   -0.001724   -0.001894   -0.001555
 step:   0.3201(harm=  0.4468)  dis= 0.00888  next Energy=   -61.581652 (dE=-0.529E-02)
 bond charge predicted
       N       E                     dE             d eps       ncg     rms          rms(c)
DAV:   1    -0.615833723004E+02   -0.52837E-02   -0.13157E+00   384   0.734E+00    0.363E-01
DAV:   2    -0.615827468343E+02    0.62547E-03   -0.24515E-02   504   0.104E+00    0.213E-01
DAV:   3    -0.615813625365E+02    0.13843E-02   -0.34768E-03   488   0.379E-01    0.505E-02
DAV:   4    -0.615813831419E+02   -0.20605E-04   -0.26506E-04   416   0.120E-01
 116 F= -.61581383E+02 E0= -.61581383E+02  d E =-.501798E-02
 curvature:  -2.08 expect dE=-0.274E-01 dE for cont linesearch -0.777E-03
 trial: gam= 0.09924 g(F)=  0.731E-02 g(S)=  0.586E-02 ort = 0.967E-02 (trialstep = 0.128E+00)
 search vector abs. value=  0.176E-01
 bond charge predicted
       N       E                     dE             d eps       ncg     rms          rms(c)
DAV:   1    -0.615830704452E+02   -0.17079E-02   -0.21839E-02   408   0.107E+00    0.594E-02
DAV:   2    -0.615830805240E+02   -0.10079E-04   -0.56610E-04   496   0.172E-01
 117 F= -.61583081E+02 E0= -.61583080E+02  d E =-.169738E-02
 ZBRENT: can't locate minimum, use default step
 trial-energy change:   -0.001697  1 .order   -0.001597   -0.001809   -0.001385
 step:   0.5122(harm=  0.5464)  dis= 0.00359  next Energy=   -61.585242 (dE=-0.386E-02)
 bond charge predicted
       N       E                     dE             d eps       ncg     rms          rms(c)
DAV:   1    -0.615855456348E+02   -0.24752E-02   -0.19736E-01   384   0.320E+00    0.185E-01
DAV:   2    -0.615852485018E+02    0.29713E-03   -0.51660E-03   512   0.524E-01    0.106E-01
DAV:   3    -0.615850591926E+02    0.18931E-03   -0.98609E-04   488   0.200E-01    0.388E-02
DAV:   4    -0.615850789496E+02   -0.19757E-04   -0.13058E-04   344   0.778E-02
 118 F= -.61585079E+02 E0= -.61585079E+02  d E =-.369581E-02
 curvature:  -0.34 expect dE=-0.473E-02 dE for cont linesearch -0.163E-05
 trial: gam= 1.18065 g(F)=  0.118E-01 g(S)=  0.219E-02 ort =-0.291E-03 (trialstep = 0.951E-01)
 search vector abs. value=  0.378E-01
 bond charge predicted
       N       E                     dE             d eps       ncg     rms          rms(c)
DAV:   1    -0.615863624810E+02   -0.13033E-02   -0.22843E-02   464   0.106E+00    0.613E-02
DAV:   2    -0.615863419043E+02    0.20577E-04   -0.46403E-04   480   0.153E-01
 119 F= -.61586342E+02 E0= -.61586342E+02  d E =-.126295E-02
 ZBRENT: can't locate minimum, use default step
 trial-energy change:   -0.001263  1 .order   -0.001209   -0.001302   -0.001117
 step:   0.3804(harm=  0.6698)  dis= 0.00303  next Energy=   -61.589663 (dE=-0.458E-02)
 bond charge predicted
       N       E                     dE             d eps       ncg     rms          rms(c)
DAV:   1    -0.615890825225E+02   -0.27200E-02   -0.20630E-01   384   0.319E+00    0.189E-01
DAV:   2    -0.615888160048E+02    0.26652E-03   -0.44679E-03   536   0.473E-01    0.110E-01
DAV:   3    -0.615885709997E+02    0.24501E-03   -0.57174E-04   488   0.161E-01    0.269E-02
DAV:   4    -0.615885939813E+02   -0.22982E-04   -0.54615E-05   328   0.549E-02
 120 F= -.61588594E+02 E0= -.61588594E+02  d E =-.351503E-02
 curvature:  -0.69 expect dE=-0.724E-02 dE for cont linesearch -0.411E-03
 trial: gam= 0.28135 g(F)=  0.601E-02 g(S)=  0.447E-02 ort = 0.474E-02 (trialstep = 0.152E+00)
 search vector abs. value=  0.161E-01
 bond charge predicted
       N       E                     dE             d eps       ncg     rms          rms(c)
DAV:   1    -0.615902121203E+02   -0.16411E-02   -0.27388E-02   472   0.118E+00    0.657E-02
DAV:   2    -0.615901942630E+02    0.17857E-04   -0.54304E-04   488   0.165E-01
 121 F= -.61590194E+02 E0= -.61590194E+02  d E =-.160028E-02
 trial-energy change:   -0.001600  1 .order   -0.001568   -0.001798   -0.001337
 step:   0.5936(harm=  0.5936)  dis= 0.00626  next Energy=   -61.592102 (dE=-0.351E-02)
 bond charge predicted
       N       E                     dE             d eps       ncg     rms          rms(c)
DAV:   1    -0.615920579702E+02   -0.18458E-02   -0.22708E-01   448   0.341E+00    0.196E-01
DAV:   2    -0.615917579575E+02    0.30001E-03   -0.43902E-03   512   0.466E-01    0.109E-01
DAV:   3    -0.615915846470E+02    0.17331E-03   -0.87337E-04   480   0.204E-01    0.341E-02
DAV:   4    -0.615915740319E+02    0.10615E-04   -0.11514E-04   368   0.697E-02
 122 F= -.61591574E+02 E0= -.61591574E+02  d E =-.298005E-02
 curvature:  -0.41 expect dE=-0.677E-02 dE for cont linesearch -0.129E-03
 trial: gam= 0.00000 g(F)=  0.147E-01 g(S)=  0.195E-02 ort =-0.227E-02 (trialstep = 0.233E+00)
 search vector abs. value=  0.167E-01
 bond charge predicted
       N       E                     dE             d eps       ncg     rms          rms(c)
DAV:   1    -0.615933707209E+02   -0.17861E-02   -0.11397E-01   384   0.232E+00    0.120E-01
DAV:   2    -0.615933886127E+02   -0.17892E-04   -0.34321E-03   480   0.379E-01    0.665E-02
DAV:   3    -0.615932876946E+02    0.10092E-03   -0.42713E-04   456   0.137E-01    0.241E-02
DAV:   4    -0.615932820987E+02    0.55960E-05   -0.53205E-05   256   0.461E-02
 123 F= -.61593282E+02 E0= -.61593282E+02  d E =-.170807E-02
 trial-energy change:   -0.001708  1 .order   -0.001741   -0.003882    0.000401
 step:   0.2108(harm=  0.2108)  dis= 0.00371  next Energy=   -61.593334 (dE=-0.176E-02)
 bond charge predicted
       N       E                     dE             d eps       ncg     rms          rms(c)
DAV:   1    -0.615933044025E+02   -0.16708E-04   -0.10658E-03   424   0.223E-01    0.119E-02
DAV:   2    -0.615933059173E+02   -0.15148E-05   -0.31644E-05   240   0.398E-02
 124 F= -.61593306E+02 E0= -.61593306E+02  d E =-.173189E-02
 curvature:  -0.11 expect dE=-0.399E-03 dE for cont linesearch -0.435E-06
 trial: gam= 0.24239 g(F)=  0.274E-02 g(S)=  0.104E-02 ort =-0.262E-03 (trialstep = 0.228E+00)
 search vector abs. value=  0.464E-02
 reached required accuracy - stopping structural energy minimisation
 writing wavefunctions
Sun Mar  6 20:17:18 CST 2022
