Sun Mar  6 19:35:57 CST 2022
 running on   48 total cores
 distrk:  each k-point on   48 cores,    1 groups
 distr:  one band on   24 cores,    2 groups
 using from now: INCAR     
 vasp.5.3.5 31Mar14 (build Jan 11 2016 19:50:55) complex                        
  
 POSCAR found type information on POSCAR  B  C  Na
 POSCAR found :  3 types and       9 ions
 scaLAPACK will be used

 ----------------------------------------------------------------------------- 
|                                                                             |
|           W    W    AA    RRRRR   N    N  II  N    N   GGGG   !!!           |
|           W    W   A  A   R    R  NN   N  II  NN   N  G    G  !!!           |
|           W    W  A    A  R    R  N N  N  II  N N  N  G       !!!           |
|           W WW W  AAAAAA  RRRRR   N  N N  II  N  N N  G  GGG   !            |
|           WW  WW  A    A  R   R   N   NN  II  N   NN  G    G                |
|           W    W  A    A  R    R  N    N  II  N    N   GGGG   !!!           |
|                                                                             |
|      For optimal performance we recommend to set                            |
|        NCORE= 4 - approx SQRT( number of cores)                             |
|      NCORE specifies how many cores store one orbital (NPAR=cpu/NCORE).     |
|      This setting can  greatly improve the performance of VASP for DFT.     |
|      The default, NPAR=number of cores might be grossly inefficient         |
|      on modern multi-core architectures or massively parallel machines.     |
|      Do your own testing !!!!                                               |
|      Unfortunately you need to use the default for GW and RPA calculations. |
|      (for HF NCORE is supported but not extensively tested yet)             |
|                                                                             |
 ----------------------------------------------------------------------------- 

 LDA part: xc-table for Pade appr. of Perdew
 POSCAR, INCAR and KPOINTS ok, starting setup
 WARNING: small aliasing (wrap around) errors must be expected
 FFT: planning ...
 WAVECAR not read
 entering main loop
       N       E                     dE             d eps       ncg     rms          rms(c)
DAV:   1     0.275428365805E+03    0.27543E+03   -0.12262E+04   456   0.870E+02
DAV:   2    -0.205125867308E+02   -0.29594E+03   -0.29083E+03   624   0.235E+02
DAV:   3    -0.715608163883E+02   -0.51048E+02   -0.50794E+02   456   0.106E+02
DAV:   4    -0.735853033765E+02   -0.20245E+01   -0.20102E+01   552   0.282E+01
DAV:   5    -0.736293686130E+02   -0.44065E-01   -0.43932E-01   504   0.373E+00    0.134E+01
DAV:   6    -0.668911729874E+02    0.67382E+01   -0.72831E+00   520   0.158E+01    0.746E+00
DAV:   7    -0.641936720509E+02    0.26975E+01   -0.84353E+00   480   0.150E+01    0.236E+00
DAV:   8    -0.639685023706E+02    0.22517E+00   -0.54722E-01   480   0.439E+00    0.570E-01
DAV:   9    -0.638906960276E+02    0.77806E-01   -0.71386E-02   496   0.147E+00    0.359E-01
DAV:  10    -0.638789295942E+02    0.11766E-01   -0.12838E-02   496   0.608E-01    0.214E-01
DAV:  11    -0.638772303468E+02    0.16992E-02   -0.83795E-03   440   0.451E-01    0.178E-01
DAV:  12    -0.638790725184E+02   -0.18422E-02   -0.34933E-03   480   0.287E-01    0.958E-02
DAV:  13    -0.638800069107E+02   -0.93439E-03   -0.25039E-03   440   0.187E-01    0.961E-02
DAV:  14    -0.638834095363E+02   -0.34026E-02   -0.37541E-03   424   0.247E-01    0.612E-02
DAV:  15    -0.638853980067E+02   -0.19885E-02   -0.93153E-04   368   0.916E-02    0.320E-02
DAV:  16    -0.638871267688E+02   -0.17288E-02   -0.79564E-04   336   0.769E-02    0.155E-02
DAV:  17    -0.638880137766E+02   -0.88701E-03   -0.22068E-04   272   0.425E-02    0.286E-02
DAV:  18    -0.638882901336E+02   -0.27636E-03   -0.13375E-04   288   0.397E-02    0.536E-03
DAV:  19    -0.638884182909E+02   -0.12816E-03   -0.35682E-05   288   0.237E-02    0.539E-03
DAV:  20    -0.638884928238E+02   -0.74533E-04   -0.14121E-05   256   0.127E-02
   1 F= -.63888493E+02 E0= -.63838646E+02  d E =-.638885E+02
 curvature:   0.00 expect dE= 0.000E+00 dE for cont linesearch  0.000E+00
 trial: gam= 0.00000 g(F)=  0.105E+01 g(S)=  0.121E+00 ort = 0.000E+00 (trialstep = 0.100E+01)
 search vector abs. value=  0.117E+01
 bond charge predicted
       N       E                     dE             d eps       ncg     rms          rms(c)
DAV:   1    -0.642341722525E+02   -0.34575E+00   -0.13361E+02   448   0.876E+01    0.389E+00
DAV:   2    -0.640173987226E+02    0.21677E+00   -0.27871E+00   480   0.126E+01    0.204E+00
DAV:   3    -0.639389957939E+02    0.78403E-01   -0.69767E-01   480   0.527E+00    0.846E-01
DAV:   4    -0.639126207578E+02    0.26375E-01   -0.10002E-01   432   0.180E+00    0.473E-01
DAV:   5    -0.639084530372E+02    0.41677E-02   -0.14584E-02   464   0.711E-01    0.197E-01
DAV:   6    -0.639078770110E+02    0.57603E-03   -0.31312E-03   528   0.328E-01    0.752E-02
DAV:   7    -0.639077263398E+02    0.15067E-03   -0.40069E-04   464   0.135E-01    0.343E-02
DAV:   8    -0.639077366907E+02   -0.10351E-04   -0.22949E-04   432   0.792E-02
   2 F= -.63907737E+02 E0= -.63874996E+02  d E =-.192439E-01
 trial-energy change:   -0.019244  1 .order    0.053831   -1.169723    1.277384
 step:   0.5227(harm=  0.4780)  dis= 0.06522  next Energy=   -64.204637 (dE=-0.316E+00)
 bond charge predicted
       N       E                     dE             d eps       ncg     rms          rms(c)
DAV:   1    -0.643382350816E+02   -0.43051E+00   -0.27086E+01   384   0.336E+01    0.222E+00
DAV:   2    -0.642778423970E+02    0.60393E-01   -0.26429E+00   480   0.666E+00    0.108E+00
DAV:   3    -0.642223237076E+02    0.55519E-01   -0.75733E-02   520   0.204E+00    0.615E-01
DAV:   4    -0.642137812000E+02    0.85425E-02   -0.64445E-02   480   0.132E+00    0.327E-01
DAV:   5    -0.642098334649E+02    0.39477E-02   -0.17958E-02   432   0.593E-01    0.113E-01
DAV:   6    -0.642093155204E+02    0.51794E-03   -0.13985E-03   464   0.225E-01    0.509E-02
DAV:   7    -0.642093160068E+02   -0.48645E-06   -0.35711E-04   448   0.126E-01
   3 F= -.64209316E+02 E0= -.64173125E+02  d E =-.320823E+00
 curvature:  -0.24 expect dE=-0.376E+00 dE for cont linesearch -0.525E-06
 trial: gam= 1.35532 g(F)=  0.148E+01 g(S)=  0.997E-01 ort =-0.161E-02 (trialstep = 0.284E+00)
 search vector abs. value=  0.373E+01
 bond charge predicted
       N       E                     dE             d eps       ncg     rms          rms(c)
DAV:   1    -0.643302559728E+02   -0.12094E+00   -0.31911E+01   448   0.399E+01    0.167E+00
DAV:   2    -0.643156341009E+02    0.14622E-01   -0.55517E-01   464   0.566E+00    0.986E-01
DAV:   3    -0.643003742246E+02    0.15260E-01   -0.14254E-01   448   0.263E+00    0.329E-01
DAV:   4    -0.642987836777E+02    0.15905E-02   -0.25499E-02   432   0.999E-01    0.224E-01
DAV:   5    -0.642980445160E+02    0.73916E-03   -0.49644E-03   432   0.380E-01    0.944E-02
DAV:   6    -0.642980060651E+02    0.38451E-04   -0.84027E-04   448   0.172E-01
   4 F= -.64298006E+02 E0= -.64259657E+02  d E =-.886901E-01
 trial-energy change:   -0.088690  1 .order   -0.103209   -0.448865    0.242448
 step:   0.1758(harm=  0.1843)  dis= 0.03949  next Energy=   -64.344920 (dE=-0.136E+00)
 bond charge predicted
       N       E                     dE             d eps       ncg     rms          rms(c)
DAV:   1    -0.643459575219E+02   -0.47913E-01   -0.42926E+00   384   0.136E+01    0.619E-01
DAV:   2    -0.643467097184E+02   -0.75220E-03   -0.10711E-01   448   0.220E+00    0.383E-01
DAV:   3    -0.643447043053E+02    0.20054E-02   -0.20385E-02   496   0.103E+00    0.135E-01
DAV:   4    -0.643445588675E+02    0.14544E-03   -0.33682E-03   400   0.351E-01    0.846E-02
DAV:   5    -0.643444477471E+02    0.11112E-03   -0.66061E-04   400   0.146E-01    0.417E-02
DAV:   6    -0.643444653522E+02   -0.17605E-04   -0.12327E-04   320   0.692E-02
   5 F= -.64344465E+02 E0= -.64307280E+02  d E =-.135149E+00
 curvature:  -0.22 expect dE=-0.233E-01 dE for cont linesearch -0.920E-07
 trial: gam= 0.13916 g(F)=  0.833E-01 g(S)=  0.246E-01 ort = 0.126E-02 (trialstep = 0.262E+00)
 search vector abs. value=  0.180E+00
 bond charge predicted
       N       E                     dE             d eps       ncg     rms          rms(c)
DAV:   1    -0.643655782095E+02   -0.21130E-01   -0.15355E+00   384   0.749E+00    0.276E-01
DAV:   2    -0.643664153170E+02   -0.83711E-03   -0.32980E-02   448   0.118E+00    0.176E-01
DAV:   3    -0.643660012116E+02    0.41411E-03   -0.18692E-03   480   0.279E-01    0.938E-02
DAV:   4    -0.643658573322E+02    0.14388E-03   -0.60125E-04   512   0.175E-01    0.253E-02
DAV:   5    -0.643658454921E+02    0.11840E-04   -0.10187E-04   272   0.678E-02
   6 F= -.64365845E+02 E0= -.64328876E+02  d E =-.213801E-01
 trial-energy change:   -0.021380  1 .order   -0.021320   -0.028328   -0.014311
 step:   0.5300(harm=  0.5300)  dis= 0.03244  next Energy=   -64.373091 (dE=-0.286E-01)
 bond charge predicted
       N       E                     dE             d eps       ncg     rms          rms(c)
DAV:   1    -0.643726041887E+02   -0.67469E-02   -0.16027E+00   384   0.766E+00    0.280E-01
DAV:   2    -0.643734723180E+02   -0.86813E-03   -0.34347E-02   448   0.120E+00    0.180E-01
DAV:   3    -0.643730432905E+02    0.42903E-03   -0.19019E-03   480   0.277E-01    0.103E-01
DAV:   4    -0.643728613799E+02    0.18191E-03   -0.69717E-04   512   0.188E-01    0.269E-02
DAV:   5    -0.643728471040E+02    0.14276E-04   -0.11739E-04   288   0.714E-02
   7 F= -.64372847E+02 E0= -.64334998E+02  d E =-.283818E-01
 curvature:  -0.44 expect dE=-0.398E-01 dE for cont linesearch -0.104E-04
 trial: gam= 0.85250 g(F)=  0.871E-01 g(S)=  0.281E-02 ort =-0.205E-02 (trialstep = 0.262E+00)
 search vector abs. value=  0.217E+00
 bond charge predicted
       N       E                     dE             d eps       ncg     rms          rms(c)
DAV:   1    -0.643899947270E+02   -0.17133E-01   -0.19580E+00   384   0.862E+00    0.388E-01
DAV:   2    -0.643897566757E+02    0.23805E-03   -0.52194E-02   432   0.140E+00    0.227E-01
DAV:   3    -0.643877846125E+02    0.19721E-02   -0.53169E-03   416   0.446E-01    0.125E-01
DAV:   4    -0.643876130908E+02    0.17152E-03   -0.12319E-03   480   0.257E-01    0.334E-02
DAV:   5    -0.643875981071E+02    0.14984E-04   -0.22533E-04   432   0.101E-01
   8 F= -.64387598E+02 E0= -.64346722E+02  d E =-.147510E-01
 trial-energy change:   -0.014751  1 .order   -0.014746   -0.023081   -0.006412
 step:   0.3627(harm=  0.3627)  dis= 0.02466  next Energy=   -64.388827 (dE=-0.160E-01)
 bond charge predicted
       N       E                     dE             d eps       ncg     rms          rms(c)
DAV:   1    -0.643893562715E+02   -0.17432E-02   -0.29015E-01   384   0.331E+00    0.150E-01
DAV:   2    -0.643892919886E+02    0.64283E-04   -0.77341E-03   448   0.534E-01    0.884E-02
DAV:   3    -0.643890212354E+02    0.27075E-03   -0.85884E-04   392   0.172E-01    0.497E-02
DAV:   4    -0.643889987794E+02    0.22456E-04   -0.18678E-04   360   0.106E-01
   9 F= -.64388999E+02 E0= -.64346519E+02  d E =-.161517E-01
 curvature:  -0.45 expect dE=-0.387E-01 dE for cont linesearch -0.672E-05
 trial: gam= 0.94465 g(F)=  0.817E-01 g(S)=  0.484E-02 ort = 0.181E-02 (trialstep = 0.216E+00)
 search vector abs. value=  0.284E+00
 bond charge predicted
       N       E                     dE             d eps       ncg     rms          rms(c)
DAV:   1    -0.643998374756E+02   -0.10816E-01   -0.17523E+00   384   0.839E+00    0.272E-01
DAV:   2    -0.644012077480E+02   -0.13703E-02   -0.35225E-02   400   0.119E+00    0.175E-01
DAV:   3    -0.644005837835E+02    0.62396E-03   -0.28337E-03   448   0.361E-01    0.110E-01
DAV:   4    -0.644004940773E+02    0.89706E-04   -0.10415E-03   496   0.232E-01    0.338E-02
DAV:   5    -0.644004861102E+02    0.79671E-05   -0.22919E-04   352   0.103E-01
  10 F= -.64400486E+02 E0= -.64356610E+02  d E =-.114873E-01
 trial-energy change:   -0.011487  1 .order   -0.011361   -0.019056   -0.003665
 step:   0.2675(harm=  0.2675)  dis= 0.01987  next Energy=   -64.400796 (dE=-0.118E-01)
 bond charge predicted
       N       E                     dE             d eps       ncg     rms          rms(c)
DAV:   1    -0.644009405070E+02   -0.44643E-03   -0.99447E-02   384   0.200E+00    0.668E-02
DAV:   2    -0.644010050009E+02   -0.64494E-04   -0.20651E-03   400   0.288E-01    0.430E-02
DAV:   3    -0.644009703593E+02    0.34642E-04   -0.15507E-04   272   0.894E-02
  11 F= -.64400970E+02 E0= -.64356524E+02  d E =-.119716E-01
 curvature:  -0.43 expect dE=-0.141E-01 dE for cont linesearch -0.911E-06
 trial: gam= 0.44137 g(F)=  0.241E-01 g(S)=  0.869E-02 ort = 0.775E-03 (trialstep = 0.226E+00)
 search vector abs. value=  0.888E-01
 bond charge predicted
       N       E                     dE             d eps       ncg     rms          rms(c)
DAV:   1    -0.644081274735E+02   -0.71225E-02   -0.57144E-01   384   0.481E+00    0.213E-01
DAV:   2    -0.644080802552E+02    0.47218E-04   -0.15079E-02   400   0.699E-01    0.153E-01
DAV:   3    -0.644069917771E+02    0.10885E-02   -0.17319E-03   400   0.218E-01    0.662E-02
DAV:   4    -0.644069834145E+02    0.83626E-05   -0.36568E-04   384   0.131E-01
  12 F= -.64406983E+02 E0= -.64362029E+02  d E =-.601306E-02
 trial-energy change:   -0.006013  1 .order   -0.005974   -0.007506   -0.004442
 step:   0.5543(harm=  0.5543)  dis= 0.02157  next Energy=   -64.410163 (dE=-0.919E-02)
 bond charge predicted
       N       E                     dE             d eps       ncg     rms          rms(c)
DAV:   1    -0.644129355508E+02   -0.59438E-02   -0.12028E+00   384   0.698E+00    0.316E-01
DAV:   2    -0.644130965269E+02   -0.16098E-03   -0.35373E-02   400   0.102E+00    0.231E-01
DAV:   3    -0.644104731095E+02    0.26234E-02   -0.48771E-03   400   0.324E-01    0.983E-02
DAV:   4    -0.644104315506E+02    0.41559E-04   -0.84038E-04   432   0.193E-01
  13 F= -.64410432E+02 E0= -.64364401E+02  d E =-.946119E-02
 curvature:  -0.74 expect dE=-0.310E-01 dE for cont linesearch -0.159E-04
 trial: gam= 1.23286 g(F)=  0.314E-01 g(S)=  0.103E-01 ort = 0.138E-02 (trialstep = 0.144E+00)
 search vector abs. value=  0.180E+00
 bond charge predicted
       N       E                     dE             d eps       ncg     rms          rms(c)
DAV:   1    -0.644163743389E+02   -0.59012E-02   -0.45391E-01   384   0.431E+00    0.187E-01
DAV:   2    -0.644162505252E+02    0.12381E-03   -0.10611E-02   400   0.634E-01    0.135E-01
DAV:   3    -0.644157036718E+02    0.54685E-03   -0.10174E-03   400   0.204E-01    0.755E-02
DAV:   4    -0.644156149551E+02    0.88717E-04   -0.50340E-04   464   0.159E-01
  14 F= -.64415615E+02 E0= -.64370927E+02  d E =-.518340E-02
 trial-energy change:   -0.005183  1 .order   -0.005152   -0.006249   -0.004054
 step:   0.4099(harm=  0.4099)  dis= 0.02164  next Energy=   -64.419329 (dE=-0.890E-02)
 bond charge predicted
       N       E                     dE             d eps       ncg     rms          rms(c)
DAV:   1    -0.644224071576E+02   -0.67035E-02   -0.15500E+00   384   0.796E+00    0.350E-01
DAV:   2    -0.644222182979E+02    0.18886E-03   -0.36001E-02   400   0.119E+00    0.248E-01
DAV:   3    -0.644202379872E+02    0.19803E-02   -0.31698E-03   416   0.376E-01    0.138E-01
DAV:   4    -0.644198906083E+02    0.34738E-03   -0.16545E-03   432   0.287E-01    0.393E-02
DAV:   5    -0.644198989704E+02   -0.83621E-05   -0.22249E-04   432   0.971E-02
  15 F= -.64419899E+02 E0= -.64376839E+02  d E =-.946742E-02
 curvature:  -0.85 expect dE=-0.413E-01 dE for cont linesearch -0.319E-04
 trial: gam= 1.16679 g(F)=  0.437E-01 g(S)=  0.484E-02 ort = 0.260E-02 (trialstep = 0.118E+00)
 search vector abs. value=  0.300E+00
 bond charge predicted
       N       E                     dE             d eps       ncg     rms          rms(c)
DAV:   1    -0.644274222218E+02   -0.75316E-02   -0.49833E-01   384   0.453E+00    0.260E-01
DAV:   2    -0.644266136163E+02    0.80861E-03   -0.15395E-02   384   0.699E-01    0.189E-01
DAV:   3    -0.644251060238E+02    0.15076E-02   -0.15417E-03   400   0.233E-01    0.915E-02
DAV:   4    -0.644249245477E+02    0.18148E-03   -0.76624E-04   440   0.203E-01    0.187E-02
DAV:   5    -0.644249503701E+02   -0.25822E-04   -0.81359E-05   272   0.681E-02
  16 F= -.64424950E+02 E0= -.64382236E+02  d E =-.505140E-02
 trial-energy change:   -0.005051  1 .order   -0.004990   -0.006106   -0.003873
 step:   0.3238(harm=  0.3238)  dis= 0.02101  next Energy=   -64.428246 (dE=-0.835E-02)
 bond charge predicted
       N       E                     dE             d eps       ncg     rms          rms(c)
DAV:   1    -0.644360897287E+02   -0.11165E-01   -0.14990E+00   384   0.785E+00    0.458E-01
DAV:   2    -0.644338470401E+02    0.22427E-02   -0.51445E-02   400   0.123E+00    0.330E-01
DAV:   3    -0.644290325024E+02    0.48145E-02   -0.52611E-03   400   0.413E-01    0.157E-01
DAV:   4    -0.644284894476E+02    0.54305E-03   -0.21180E-03   448   0.337E-01    0.382E-02
DAV:   5    -0.644284845257E+02    0.49218E-05   -0.29141E-04   416   0.109E-01
  17 F= -.64428485E+02 E0= -.64386183E+02  d E =-.858556E-02
 curvature:  -0.94 expect dE=-0.273E-01 dE for cont linesearch -0.294E-05
 trial: gam= 0.68887 g(F)=  0.238E-01 g(S)=  0.519E-02 ort = 0.968E-03 (trialstep = 0.160E+00)
 search vector abs. value=  0.173E+00
 bond charge predicted
       N       E                     dE             d eps       ncg     rms          rms(c)
DAV:   1    -0.644360371589E+02   -0.75477E-02   -0.47985E-01   384   0.443E+00    0.299E-01
DAV:   2    -0.644344955910E+02    0.15416E-02   -0.16415E-02   384   0.694E-01    0.203E-01
DAV:   3    -0.644328328313E+02    0.16628E-02   -0.16721E-03   416   0.245E-01    0.102E-01
DAV:   4    -0.644325774624E+02    0.25537E-03   -0.10333E-03   448   0.232E-01    0.238E-02
DAV:   5    -0.644326013052E+02   -0.23843E-04   -0.98980E-05   296   0.762E-02
  18 F= -.64432601E+02 E0= -.64390750E+02  d E =-.411678E-02
 trial-energy change:   -0.004117  1 .order   -0.003978   -0.004738   -0.003218
 step:   0.4973(harm=  0.4973)  dis= 0.02328  next Energy=   -64.435869 (dE=-0.738E-02)
 bond charge predicted
       N       E                     dE             d eps       ncg     rms          rms(c)
DAV:   1    -0.644518853124E+02   -0.19308E-01   -0.21447E+00   384   0.932E+00    0.648E-01
DAV:   2    -0.644456316560E+02    0.62537E-02   -0.82388E-02   408   0.149E+00    0.437E-01
DAV:   3    -0.644372297251E+02    0.84019E-02   -0.75562E-03   416   0.530E-01    0.215E-01
DAV:   4    -0.644360875196E+02    0.11422E-02   -0.46057E-03   464   0.489E-01    0.623E-02
DAV:   5    -0.644360051942E+02    0.82325E-04   -0.57557E-04   464   0.153E-01
  19 F= -.64436005E+02 E0= -.64394745E+02  d E =-.752067E-02
 curvature:  -1.45 expect dE=-0.600E-01 dE for cont linesearch -0.369E-05
 trial: gam= 1.43485 g(F)=  0.336E-01 g(S)=  0.796E-02 ort =-0.664E-03 (trialstep = 0.992E-01)
 search vector abs. value=  0.395E+00
 bond charge predicted
       N       E                     dE             d eps       ncg     rms          rms(c)
DAV:   1    -0.644451392675E+02   -0.90517E-02   -0.41308E-01   384   0.411E+00    0.352E-01
DAV:   2    -0.644425830416E+02    0.25562E-02   -0.20194E-02   400   0.720E-01    0.236E-01
DAV:   3    -0.644399283745E+02    0.26547E-02   -0.21997E-03   400   0.262E-01    0.105E-01
DAV:   4    -0.644396475356E+02    0.28084E-03   -0.10261E-03   448   0.230E-01    0.261E-02
DAV:   5    -0.644396803859E+02   -0.32850E-04   -0.10398E-04   320   0.719E-02
  20 F= -.64439680E+02 E0= -.64398345E+02  d E =-.367519E-02
 ZBRENT: can't locate minimum, use default step
 trial-energy change:   -0.003675  1 .order   -0.003560   -0.004027   -0.003093
 step:   0.3969(harm=  0.4280)  dis= 0.02693  next Energy=   -64.444690 (dE=-0.868E-02)
 bond charge predicted
       N       E                     dE             d eps       ncg     rms          rms(c)
DAV:   1    -0.644986417068E+02   -0.58994E-01   -0.37804E+00   416   0.122E+01    0.114E+00
DAV:   2    -0.644801945194E+02    0.18447E-01   -0.54956E-01   416   0.208E+00    0.734E-01
DAV:   3    -0.644480965791E+02    0.32098E-01   -0.51599E-02   400   0.824E-01    0.321E-01
DAV:   4    -0.644451069010E+02    0.29897E-02   -0.10612E-02   464   0.646E-01    0.136E-01
DAV:   5    -0.644446272666E+02    0.47963E-03   -0.19524E-03   432   0.255E-01    0.565E-02
DAV:   6    -0.644446955443E+02   -0.68278E-04   -0.44856E-04   352   0.139E-01
  21 F= -.64444696E+02 E0= -.64402799E+02  d E =-.869035E-02
 curvature:  -2.06 expect dE=-0.873E-01 dE for cont linesearch -0.107E-03
 trial: gam= 0.90180 g(F)=  0.371E-01 g(S)=  0.520E-02 ort = 0.453E-02 (trialstep = 0.159E+00)
 search vector abs. value=  0.372E+00
 bond charge predicted
       N       E                     dE             d eps       ncg     rms          rms(c)
DAV:   1    -0.644640567170E+02   -0.19429E-01   -0.91681E-01   416   0.612E+00    0.575E-01
DAV:   2    -0.644581245545E+02    0.59322E-02   -0.44036E-02   416   0.100E+00    0.363E-01
DAV:   3    -0.644514383515E+02    0.66862E-02   -0.51289E-03   416   0.420E-01    0.164E-01
DAV:   4    -0.644506757456E+02    0.76261E-03   -0.25875E-03   448   0.341E-01    0.541E-02
DAV:   5    -0.644506459223E+02    0.29823E-04   -0.35134E-04   464   0.112E-01
  22 F= -.64450646E+02 E0= -.64408367E+02  d E =-.595038E-02
 trial-energy change:   -0.005950  1 .order   -0.005945   -0.007363   -0.004527
 step:   0.4123(harm=  0.4123)  dis= 0.02551  next Energy=   -64.454255 (dE=-0.956E-02)
 bond charge predicted
       N       E                     dE             d eps       ncg     rms          rms(c)
DAV:   1    -0.644923397449E+02   -0.41664E-01   -0.23632E+00   448   0.975E+00    0.100E+00
DAV:   2    -0.644794342648E+02    0.12905E-01   -0.15928E-01   416   0.158E+00    0.614E-01
DAV:   3    -0.644568090763E+02    0.22625E-01   -0.19316E-02   400   0.735E-01    0.279E-01
DAV:   4    -0.644545185730E+02    0.22905E-02   -0.95044E-03   416   0.588E-01    0.135E-01
DAV:   5    -0.644540550895E+02    0.46348E-03   -0.16762E-03   464   0.242E-01    0.557E-02
DAV:   6    -0.644540813429E+02   -0.26253E-04   -0.35189E-04   336   0.112E-01
  23 F= -.64454081E+02 E0= -.64411918E+02  d E =-.938580E-02
 curvature:  -1.65 expect dE=-0.664E-01 dE for cont linesearch -0.305E-05
 trial: gam= 1.16770 g(F)=  0.370E-01 g(S)=  0.316E-02 ort =-0.829E-03 (trialstep = 0.143E+00)
 search vector abs. value=  0.545E+00
 bond charge predicted
       N       E                     dE             d eps       ncg     rms          rms(c)
DAV:   1    -0.644820021205E+02   -0.27947E-01   -0.10488E+00   448   0.640E+00    0.752E-01
DAV:   2    -0.644740759657E+02    0.79262E-02   -0.79288E-02   416   0.116E+00    0.482E-01
DAV:   3    -0.644598339329E+02    0.14242E-01   -0.97247E-03   400   0.542E-01    0.195E-01
DAV:   4    -0.644588042015E+02    0.10297E-02   -0.45167E-03   416   0.414E-01    0.946E-02
DAV:   5    -0.644585743128E+02    0.22989E-03   -0.81900E-04   448   0.166E-01    0.392E-02
DAV:   6    -0.644586355629E+02   -0.61250E-04   -0.20316E-04   272   0.890E-02
  24 F= -.64458636E+02 E0= -.64415929E+02  d E =-.455422E-02
 trial-energy change:   -0.004554  1 .order   -0.004307   -0.005603   -0.003011
 step:   0.3089(harm=  0.3089)  dis= 0.02241  next Energy=   -64.460138 (dE=-0.606E-02)
 bond charge predicted
       N       E                     dE             d eps       ncg     rms          rms(c)
DAV:   1    -0.644932158157E+02   -0.34642E-01   -0.14278E+00   448   0.745E+00    0.900E-01
DAV:   2    -0.644840774075E+02    0.91384E-02   -0.16746E-01   416   0.139E+00    0.577E-01
DAV:   3    -0.644625797954E+02    0.21498E-01   -0.24092E-02   400   0.654E-01    0.237E-01
DAV:   4    -0.644610084149E+02    0.15714E-02   -0.71562E-03   432   0.504E-01    0.125E-01
DAV:   5    -0.644605890994E+02    0.41932E-03   -0.13096E-03   432   0.212E-01    0.527E-02
DAV:   6    -0.644605990514E+02   -0.99520E-05   -0.36483E-04   336   0.114E-01
  25 F= -.64460599E+02 E0= -.64417241E+02  d E =-.651771E-02
 curvature:  -2.15 expect dE=-0.713E-01 dE for cont linesearch -0.872E-06
 trial: gam= 0.65181 g(F)=  0.309E-01 g(S)=  0.229E-02 ort =-0.471E-03 (trialstep = 0.176E+00)
 search vector abs. value=  0.264E+00
 bond charge predicted
       N       E                     dE             d eps       ncg     rms          rms(c)
DAV:   1    -0.644812978274E+02   -0.20709E-01   -0.71925E-01   432   0.540E+00    0.607E-01
DAV:   2    -0.644757029077E+02    0.55949E-02   -0.49744E-02   416   0.969E-01    0.402E-01
DAV:   3    -0.644667529935E+02    0.89499E-02   -0.65810E-03   416   0.447E-01    0.168E-01
DAV:   4    -0.644659947815E+02    0.75821E-03   -0.30134E-03   456   0.347E-01    0.689E-02
DAV:   5    -0.644658701537E+02    0.12463E-03   -0.41791E-04   448   0.119E-01    0.283E-02
DAV:   6    -0.644659483421E+02   -0.78188E-04   -0.11791E-04   256   0.668E-02
  26 F= -.64465948E+02 E0= -.64422524E+02  d E =-.534929E-02
 ZBRENT: can't locate minimum, use default step
 trial-energy change:   -0.005349  1 .order   -0.005118   -0.005797   -0.004440
 step:   0.7042(harm=  0.7521)  dis= 0.03289  next Energy=   -64.472980 (dE=-0.124E-01)
 bond charge predicted
       N       E                     dE             d eps       ncg     rms          rms(c)
DAV:   1    -0.646256863336E+02   -0.15982E+00   -0.68108E+00   448   0.160E+01    0.202E+00
DAV:   2    -0.645816283825E+02    0.44058E-01   -0.23940E+00   464   0.300E+00    0.111E+00
DAV:   3    -0.644911830843E+02    0.90445E-01   -0.64085E-02   416   0.140E+00    0.592E-01
DAV:   4    -0.644794847812E+02    0.11698E-01   -0.63501E-02   432   0.126E+00    0.397E-01
DAV:   5    -0.644725926420E+02    0.68921E-02   -0.15736E-02   384   0.563E-01    0.868E-02
DAV:   6    -0.644728603495E+02   -0.26771E-03   -0.87601E-04   416   0.200E-01    0.449E-02
DAV:   7    -0.644730815118E+02   -0.22116E-03   -0.11458E-04   288   0.664E-02    0.255E-02
DAV:   8    -0.644733010190E+02   -0.21951E-03   -0.17834E-04   312   0.619E-02    0.191E-02
DAV:   9    -0.644734829820E+02   -0.18196E-03   -0.86663E-05   256   0.425E-02    0.135E-02
DAV:  10    -0.644736220184E+02   -0.13904E-03   -0.41753E-05   272   0.288E-02    0.411E-03
DAV:  11    -0.644737202348E+02   -0.98216E-04   -0.32035E-05   256   0.214E-02
  27 F= -.64473720E+02 E0= -.64430007E+02  d E =-.131212E-01
 curvature:  -3.00 expect dE=-0.838E-01 dE for cont linesearch -0.137E-03
 trial: gam= 0.90408 g(F)=  0.213E-01 g(S)=  0.669E-02 ort = 0.347E-02 (trialstep = 0.282E+00)
 search vector abs. value=  0.250E+00
 bond charge predicted
       N       E                     dE             d eps       ncg     rms          rms(c)
DAV:   1    -0.645250461880E+02   -0.51424E-01   -0.17638E+00   448   0.834E+00    0.103E+00
DAV:   2    -0.645098900978E+02    0.15156E-01   -0.39996E-01   416   0.161E+00    0.670E-01
DAV:   3    -0.644823830999E+02    0.27507E-01   -0.42429E-02   384   0.724E-01    0.285E-01
DAV:   4    -0.644800422980E+02    0.23408E-02   -0.95701E-03   416   0.564E-01    0.138E-01
DAV:   5    -0.644793936631E+02    0.64863E-03   -0.17242E-03   464   0.234E-01    0.542E-02
DAV:   6    -0.644793963446E+02   -0.26815E-05   -0.46775E-04   408   0.121E-01
  28 F= -.64479396E+02 E0= -.64435971E+02  d E =-.567611E-02
 trial-energy change:   -0.005676  1 .order   -0.005796   -0.008764   -0.002828
 step:   0.4159(harm=  0.4159)  dis= 0.01704  next Energy=   -64.480190 (dE=-0.647E-02)
 bond charge predicted
       N       E                     dE             d eps       ncg     rms          rms(c)
DAV:   1    -0.644904284002E+02   -0.11035E-01   -0.39484E-01   416   0.401E+00    0.466E-01
DAV:   2    -0.644863343234E+02    0.40941E-02   -0.35298E-02   400   0.782E-01    0.317E-01
DAV:   3    -0.644809919967E+02    0.53423E-02   -0.51413E-03   400   0.334E-01    0.130E-01
DAV:   4    -0.644804964862E+02    0.49551E-03   -0.15570E-03   408   0.259E-01    0.391E-02
DAV:   5    -0.644804916517E+02    0.48344E-05   -0.18441E-04   336   0.868E-02
  29 F= -.64480492E+02 E0= -.64436267E+02  d E =-.677142E-02
 curvature:  -1.67 expect dE=-0.794E-01 dE for cont linesearch -0.176E-03
 trial: gam= 1.67731 g(F)=  0.454E-01 g(S)=  0.215E-02 ort = 0.514E-02 (trialstep = 0.100E+00)
 search vector abs. value=  0.769E+00
 bond charge predicted
       N       E                     dE             d eps       ncg     rms          rms(c)
DAV:   1    -0.644992312310E+02   -0.18735E-01   -0.64425E-01   416   0.520E+00    0.563E-01
DAV:   2    -0.644930756937E+02    0.61555E-02   -0.47177E-02   392   0.920E-01    0.373E-01
DAV:   3    -0.644861330029E+02    0.69427E-02   -0.64987E-03   416   0.393E-01    0.168E-01
DAV:   4    -0.644852296434E+02    0.90336E-03   -0.27807E-03   400   0.344E-01    0.526E-02
DAV:   5    -0.644851903858E+02    0.39258E-04   -0.34906E-04   440   0.118E-01
  30 F= -.64485190E+02 E0= -.64441578E+02  d E =-.469873E-02
 ZBRENT: can't locate minimum, use default step
 trial-energy change:   -0.004699  1 .order   -0.004956   -0.005636   -0.004276
 step:   0.4017(harm=  0.4160)  dis= 0.02717  next Energy=   -64.492166 (dE=-0.117E-01)
 bond charge predicted
       N       E                     dE             d eps       ncg     rms          rms(c)
DAV:   1    -0.646272585066E+02   -0.14203E+00   -0.60615E+00   448   0.155E+01    0.185E+00
DAV:   2    -0.645747042018E+02    0.52554E-01   -0.16550E+00   448   0.272E+00    0.104E+00
DAV:   3    -0.645054898936E+02    0.69214E-01   -0.59309E-02   408   0.123E+00    0.553E-01
DAV:   4    -0.644954227905E+02    0.10067E-01   -0.46603E-02   408   0.117E+00    0.325E-01
DAV:   5    -0.644906824503E+02    0.47403E-02   -0.11045E-02   384   0.517E-01    0.896E-02
DAV:   6    -0.644909154396E+02   -0.23299E-03   -0.89096E-04   424   0.189E-01    0.443E-02
DAV:   7    -0.644911956185E+02   -0.28018E-03   -0.13104E-04   272   0.710E-02    0.265E-02
DAV:   8    -0.644913957130E+02   -0.20009E-03   -0.15769E-04   312   0.607E-02    0.152E-02
DAV:   9    -0.644915969624E+02   -0.20125E-03   -0.71230E-05   256   0.407E-02    0.101E-02
DAV:  10    -0.644917462571E+02   -0.14929E-03   -0.52025E-05   256   0.311E-02    0.380E-03
DAV:  11    -0.644918114742E+02   -0.65217E-04   -0.20115E-05   288   0.203E-02
  31 F= -.64491811E+02 E0= -.64450290E+02  d E =-.113198E-01
 curvature:  -2.84 expect dE=-0.681E-01 dE for cont linesearch -0.997E-05
 trial: gam= 0.73384 g(F)=  0.191E-01 g(S)=  0.480E-02 ort = 0.164E-02 (trialstep = 0.161E+00)
 search vector abs. value=  0.440E+00
 bond charge predicted
       N       E                     dE             d eps       ncg     rms          rms(c)
DAV:   1    -0.645190496187E+02   -0.27303E-01   -0.92707E-01   448   0.627E+00    0.746E-01
DAV:   2    -0.645073991099E+02    0.11651E-01   -0.82418E-02   400   0.112E+00    0.462E-01
DAV:   3    -0.644962978462E+02    0.11101E-01   -0.11040E-02   400   0.503E-01    0.205E-01
DAV:   4    -0.644950388546E+02    0.12590E-02   -0.39156E-03   416   0.403E-01    0.741E-02
DAV:   5    -0.644948469010E+02    0.19195E-03   -0.64237E-04   472   0.150E-01    0.329E-02
DAV:   6    -0.644948717102E+02   -0.24809E-04   -0.13118E-04   312   0.747E-02
  32 F= -.64494872E+02 E0= -.64453892E+02  d E =-.306024E-02
 trial-energy change:   -0.003060  1 .order   -0.003231   -0.004042   -0.002420
 step:   0.4006(harm=  0.4006)  dis= 0.01964  next Energy=   -64.496850 (dE=-0.504E-02)
 bond charge predicted
       N       E                     dE             d eps       ncg     rms          rms(c)
DAV:   1    -0.645522025751E+02   -0.57356E-01   -0.21002E+00   448   0.937E+00    0.114E+00
DAV:   2    -0.645270615894E+02    0.25141E-01   -0.35387E-01   400   0.172E+00    0.682E-01
DAV:   3    -0.645006546259E+02    0.26407E-01   -0.37824E-02   400   0.765E-01    0.316E-01
DAV:   4    -0.644973875243E+02    0.32671E-02   -0.10552E-02   416   0.627E-01    0.133E-01
DAV:   5    -0.644968039102E+02    0.58361E-03   -0.19613E-03   448   0.251E-01    0.546E-02
DAV:   6    -0.644968768275E+02   -0.72917E-04   -0.39246E-04   368   0.122E-01
  33 F= -.64496877E+02 E0= -.64456400E+02  d E =-.506535E-02
 curvature:  -3.51 expect dE=-0.502E-01 dE for cont linesearch -0.459E-04
 trial: gam= 0.43567 g(F)=  0.800E-02 g(S)=  0.632E-02 ort = 0.240E-02 (trialstep = 0.209E+00)
 search vector abs. value=  0.100E+00
 bond charge predicted
       N       E                     dE             d eps       ncg     rms          rms(c)
DAV:   1    -0.645072333885E+02   -0.10429E-01   -0.32933E-01   448   0.395E+00    0.437E-01
DAV:   2    -0.645025713307E+02    0.46621E-02   -0.18447E-02   400   0.670E-01    0.254E-01
DAV:   3    -0.644997790802E+02    0.27923E-02   -0.24429E-03   384   0.292E-01    0.125E-01
DAV:   4    -0.644993464516E+02    0.43263E-03   -0.11680E-03   440   0.233E-01    0.315E-02
DAV:   5    -0.644993642587E+02   -0.17807E-04   -0.99028E-05   304   0.685E-02
  34 F= -.64499364E+02 E0= -.64458778E+02  d E =-.248743E-02
 trial-energy change:   -0.002487  1 .order   -0.002293   -0.003207   -0.001378
 step:   0.3658(harm=  0.3658)  dis= 0.00796  next Energy=   -64.499688 (dE=-0.281E-02)
 bond charge predicted
       N       E                     dE             d eps       ncg     rms          rms(c)
DAV:   1    -0.645045465795E+02   -0.52001E-02   -0.18778E-01   448   0.299E+00    0.330E-01
DAV:   2    -0.645017131744E+02    0.28334E-02   -0.10304E-02   400   0.509E-01    0.192E-01
DAV:   3    -0.645002058788E+02    0.15073E-02   -0.13761E-03   384   0.221E-01    0.945E-02
DAV:   4    -0.644999584823E+02    0.24740E-03   -0.66221E-04   408   0.175E-01    0.225E-02
DAV:   5    -0.644999790938E+02   -0.20612E-04   -0.48169E-05   288   0.513E-02
  35 F= -.64499979E+02 E0= -.64459578E+02  d E =-.310227E-02
 curvature:  -1.19 expect dE=-0.180E-01 dE for cont linesearch -0.731E-06
 trial: gam= 1.20653 g(F)=  0.144E-01 g(S)=  0.667E-03 ort =-0.248E-03 (trialstep = 0.150E+00)
 search vector abs. value=  0.160E+00
 bond charge predicted
       N       E                     dE             d eps       ncg     rms          rms(c)
DAV:   1    -0.645098721065E+02   -0.99136E-02   -0.28957E-01   448   0.367E+00    0.434E-01
DAV:   2    -0.645051908392E+02    0.46813E-02   -0.22813E-02   392   0.675E-01    0.261E-01
DAV:   3    -0.645019076145E+02    0.32832E-02   -0.30557E-03   384   0.288E-01    0.115E-01
DAV:   4    -0.645015147540E+02    0.39286E-03   -0.94965E-04   400   0.214E-01    0.306E-02
DAV:   5    -0.645015105325E+02    0.42215E-05   -0.11089E-04   304   0.680E-02
  36 F= -.64501511E+02 E0= -.64460482E+02  d E =-.153144E-02
 trial-energy change:   -0.001531  1 .order   -0.001560   -0.002221   -0.000898
 step:   0.2518(harm=  0.2518)  dis= 0.00683  next Energy=   -64.501843 (dE=-0.186E-02)
 bond charge predicted
       N       E                     dE             d eps       ncg     rms          rms(c)
DAV:   1    -0.645056664476E+02   -0.41517E-02   -0.13386E-01   448   0.251E+00    0.291E-01
DAV:   2    -0.645034168508E+02    0.22496E-02   -0.96406E-03   384   0.453E-01    0.175E-01
DAV:   3    -0.645020244691E+02    0.13924E-02   -0.13163E-03   384   0.191E-01    0.786E-02
DAV:   4    -0.645018459446E+02    0.17852E-03   -0.43424E-04   400   0.145E-01    0.178E-02
DAV:   5    -0.645018652152E+02   -0.19271E-04   -0.38918E-05   288   0.435E-02
  37 F= -.64501865E+02 E0= -.64460442E+02  d E =-.188612E-02
 curvature:  -1.36 expect dE=-0.108E-01 dE for cont linesearch -0.158E-06
 trial: gam= 0.36830 g(F)=  0.583E-02 g(S)=  0.214E-02 ort = 0.136E-03 (trialstep = 0.170E+00)
 search vector abs. value=  0.298E-01
 bond charge predicted
       N       E                     dE             d eps       ncg     rms          rms(c)
DAV:   1    -0.645045112676E+02   -0.26653E-02   -0.74464E-02   384   0.182E+00    0.177E-01
DAV:   2    -0.645036491297E+02    0.86214E-03   -0.41611E-03   384   0.320E-01    0.112E-01
DAV:   3    -0.645031297355E+02    0.51939E-03   -0.45864E-04   352   0.116E-01    0.536E-02
DAV:   4    -0.645030434348E+02    0.86301E-04   -0.22182E-04   280   0.102E-01
  38 F= -.64503043E+02 E0= -.64461394E+02  d E =-.117822E-02
 trial-energy change:   -0.001178  1 .order   -0.001188   -0.001366   -0.001010
 step:   0.6533(harm=  0.6533)  dis= 0.00768  next Energy=   -64.504484 (dE=-0.262E-02)
 bond charge predicted
       N       E                     dE             d eps       ncg     rms          rms(c)
DAV:   1    -0.645167001756E+02   -0.13570E-01   -0.60327E-01   416   0.515E+00    0.542E-01
DAV:   2    -0.645106872202E+02    0.60130E-02   -0.51203E-02   384   0.899E-01    0.339E-01
DAV:   3    -0.645048411837E+02    0.58460E-02   -0.78890E-03   384   0.362E-01    0.153E-01
DAV:   4    -0.645040591960E+02    0.78199E-03   -0.21693E-03   400   0.300E-01    0.555E-02
DAV:   5    -0.645039900979E+02    0.69098E-04   -0.34326E-04   464   0.114E-01
  39 F= -.64503990E+02 E0= -.64461768E+02  d E =-.212488E-02
 curvature:  -1.21 expect dE=-0.521E-02 dE for cont linesearch -0.354E-05
 trial: gam= 0.66089 g(F)=  0.412E-02 g(S)=  0.173E-03 ort =-0.295E-03 (trialstep = 0.267E+00)
 search vector abs. value=  0.169E-01
 bond charge predicted
       N       E                     dE             d eps       ncg     rms          rms(c)
DAV:   1    -0.645062584789E+02   -0.21993E-02   -0.11097E-01   384   0.220E+00    0.185E-01
DAV:   2    -0.645054137839E+02    0.84469E-03   -0.45120E-03   392   0.359E-01    0.117E-01
DAV:   3    -0.645049154504E+02    0.49833E-03   -0.46477E-04   368   0.129E-01    0.633E-02
DAV:   4    -0.645047950200E+02    0.12043E-03   -0.36926E-04   360   0.129E-01    0.140E-02
DAV:   5    -0.645048283520E+02   -0.33332E-04   -0.30901E-05   320   0.423E-02
  40 F= -.64504828E+02 E0= -.64463382E+02  d E =-.838254E-03
 trial-energy change:   -0.000838  1 .order   -0.000820   -0.001095   -0.000545
 step:   0.5312(harm=  0.5312)  dis= 0.00547  next Energy=   -64.505080 (dE=-0.109E-02)
 bond charge predicted
       N       E                     dE             d eps       ncg     rms          rms(c)
DAV:   1    -0.645066023706E+02   -0.18074E-02   -0.10942E-01   384   0.218E+00    0.185E-01
DAV:   2    -0.645057566920E+02    0.84568E-03   -0.45345E-03   392   0.360E-01    0.115E-01
DAV:   3    -0.645052678123E+02    0.48888E-03   -0.46343E-04   368   0.130E-01    0.613E-02
DAV:   4    -0.645051453316E+02    0.12248E-03   -0.33470E-04   344   0.124E-01    0.133E-02
DAV:   5    -0.645051628902E+02   -0.17559E-04   -0.29127E-05   320   0.413E-02
  41 F= -.64505163E+02 E0= -.64464161E+02  d E =-.117279E-02
 curvature:  -1.10 expect dE=-0.785E-02 dE for cont linesearch -0.536E-05
 trial: gam= 1.41245 g(F)=  0.684E-02 g(S)=  0.326E-03 ort = 0.288E-03 (trialstep = 0.130E+00)
 search vector abs. value=  0.417E-01
 bond charge predicted
       N       E                     dE             d eps       ncg     rms          rms(c)
DAV:   1    -0.645069789726E+02   -0.18336E-02   -0.68259E-02   384   0.173E+00    0.153E-01
DAV:   2    -0.645063499126E+02    0.62906E-03   -0.33353E-03   384   0.305E-01    0.971E-02
DAV:   3    -0.645059711398E+02    0.37877E-03   -0.33906E-04   288   0.110E-01    0.468E-02
DAV:   4    -0.645059094757E+02    0.61664E-04   -0.18424E-04   288   0.940E-02
  42 F= -.64505909E+02 E0= -.64464874E+02  d E =-.746586E-03
 trial-energy change:   -0.000747  1 .order   -0.000735   -0.000982   -0.000489
 step:   0.2581(harm=  0.2581)  dis= 0.00437  next Energy=   -64.506140 (dE=-0.977E-03)
 bond charge predicted
       N       E                     dE             d eps       ncg     rms          rms(c)
DAV:   1    -0.645072158917E+02   -0.12448E-02   -0.67460E-02   384   0.172E+00    0.151E-01
DAV:   2    -0.645066056654E+02    0.61023E-03   -0.32753E-03   384   0.305E-01    0.960E-02
DAV:   3    -0.645062400997E+02    0.36557E-03   -0.32636E-04   288   0.108E-01    0.468E-02
DAV:   4    -0.645061770987E+02    0.63001E-04   -0.18186E-04   288   0.941E-02
  43 F= -.64506177E+02 E0= -.64465187E+02  d E =-.101421E-02
 curvature:  -0.71 expect dE=-0.286E-02 dE for cont linesearch -0.969E-06
 trial: gam= 0.67828 g(F)=  0.352E-02 g(S)=  0.496E-03 ort = 0.239E-03 (trialstep = 0.155E+00)
 search vector abs. value=  0.235E-01
 bond charge predicted
       N       E                     dE             d eps       ncg     rms          rms(c)
DAV:   1    -0.645074714838E+02   -0.12314E-02   -0.53775E-02   384   0.152E+00    0.130E-01
DAV:   2    -0.645070386049E+02    0.43288E-03   -0.22870E-03   384   0.262E-01    0.792E-02
DAV:   3    -0.645068082343E+02    0.23037E-03   -0.22100E-04   256   0.938E-02    0.398E-02
DAV:   4    -0.645067695421E+02    0.38692E-04   -0.12903E-04   280   0.790E-02
  44 F= -.64506770E+02 E0= -.64465956E+02  d E =-.592443E-03
 trial-energy change:   -0.000592  1 .order   -0.000543   -0.000649   -0.000437
 step:   0.4748(harm=  0.4748)  dis= 0.00659  next Energy=   -64.507169 (dE=-0.992E-03)
 bond charge predicted
       N       E                     dE             d eps       ncg     rms          rms(c)
DAV:   1    -0.645103257820E+02   -0.35175E-02   -0.22698E-01   384   0.312E+00    0.270E-01
DAV:   2    -0.645085666952E+02    0.17591E-02   -0.10027E-02   384   0.540E-01    0.165E-01
DAV:   3    -0.645075053279E+02    0.10614E-02   -0.10195E-03   384   0.198E-01    0.827E-02
DAV:   4    -0.645072995039E+02    0.20582E-03   -0.53568E-04   400   0.171E-01    0.148E-02
DAV:   5    -0.645073145447E+02   -0.15041E-04   -0.40454E-05   312   0.529E-02
  45 F= -.64507315E+02 E0= -.64466908E+02  d E =-.113745E-02
 curvature:  -1.34 expect dE=-0.312E-02 dE for cont linesearch -0.565E-05
 trial: gam= 0.58265 g(F)=  0.183E-02 g(S)=  0.502E-03 ort = 0.315E-03 (trialstep = 0.219E+00)
 search vector abs. value=  0.107E-01
 bond charge predicted
       N       E                     dE             d eps       ncg     rms          rms(c)
DAV:   1    -0.645086117490E+02   -0.13122E-02   -0.56725E-02   384   0.149E+00    0.134E-01
DAV:   2    -0.645081299665E+02    0.48178E-03   -0.27864E-03   384   0.292E-01    0.824E-02
DAV:   3    -0.645078495036E+02    0.28046E-03   -0.26511E-04   256   0.100E-01    0.379E-02
DAV:   4    -0.645078232800E+02    0.26224E-04   -0.12620E-04   280   0.795E-02
  46 F= -.64507823E+02 E0= -.64467146E+02  d E =-.508735E-03
 trial-energy change:   -0.000509  1 .order   -0.000454   -0.000551   -0.000356
 step:   0.6194(harm=  0.6194)  dis= 0.00709  next Energy=   -64.508093 (dE=-0.779E-03)
 bond charge predicted
       N       E                     dE             d eps       ncg     rms          rms(c)
DAV:   1    -0.645108104184E+02   -0.29609E-02   -0.18915E-01   384   0.271E+00    0.246E-01
DAV:   2    -0.645093364335E+02    0.14740E-02   -0.95053E-03   384   0.535E-01    0.154E-01
DAV:   3    -0.645083104884E+02    0.10259E-02   -0.99358E-04   384   0.185E-01    0.708E-02
DAV:   4    -0.645081787716E+02    0.13172E-03   -0.40247E-04   384   0.155E-01    0.144E-02
DAV:   5    -0.645081946962E+02   -0.15925E-04   -0.43551E-05   288   0.560E-02
  47 F= -.64508195E+02 E0= -.64467275E+02  d E =-.880152E-03
 curvature:  -1.32 expect dE=-0.471E-02 dE for cont linesearch -0.269E-07
 trial: gam= 1.65883 g(F)=  0.347E-02 g(S)=  0.111E-03 ort = 0.148E-04 (trialstep = 0.968E-01)
 search vector abs. value=  0.330E-01
 reached required accuracy - stopping structural energy minimisation
 writing wavefunctions
Sun Mar  6 19:39:16 CST 2022
