Sun Mar  6 20:18:34 CST 2022
 running on   48 total cores
 distrk:  each k-point on   48 cores,    1 groups
 distr:  one band on   24 cores,    2 groups
 using from now: INCAR     
 vasp.5.3.5 31Mar14 (build Jan 11 2016 19:50:55) complex                        
  
 POSCAR found type information on POSCAR  B  C  Na
 POSCAR found :  3 types and       9 ions
 scaLAPACK will be used

 ----------------------------------------------------------------------------- 
|                                                                             |
|           W    W    AA    RRRRR   N    N  II  N    N   GGGG   !!!           |
|           W    W   A  A   R    R  NN   N  II  NN   N  G    G  !!!           |
|           W    W  A    A  R    R  N N  N  II  N N  N  G       !!!           |
|           W WW W  AAAAAA  RRRRR   N  N N  II  N  N N  G  GGG   !            |
|           WW  WW  A    A  R   R   N   NN  II  N   NN  G    G                |
|           W    W  A    A  R    R  N    N  II  N    N   GGGG   !!!           |
|                                                                             |
|      For optimal performance we recommend to set                            |
|        NCORE= 4 - approx SQRT( number of cores)                             |
|      NCORE specifies how many cores store one orbital (NPAR=cpu/NCORE).     |
|      This setting can  greatly improve the performance of VASP for DFT.     |
|      The default, NPAR=number of cores might be grossly inefficient         |
|      on modern multi-core architectures or massively parallel machines.     |
|      Do your own testing !!!!                                               |
|      Unfortunately you need to use the default for GW and RPA calculations. |
|      (for HF NCORE is supported but not extensively tested yet)             |
|                                                                             |
 ----------------------------------------------------------------------------- 

 LDA part: xc-table for Pade appr. of Perdew
 POSCAR, INCAR and KPOINTS ok, starting setup
 WARNING: small aliasing (wrap around) errors must be expected
 FFT: planning ...
 WAVECAR not read
 entering main loop
       N       E                     dE             d eps       ncg     rms          rms(c)
DAV:   1     0.280110445352E+03    0.28011E+03   -0.11462E+04   472   0.830E+02
DAV:   2    -0.822795907710E+01   -0.28834E+03   -0.27766E+03   616   0.223E+02
DAV:   3    -0.720082136995E+02   -0.63780E+02   -0.61964E+02   456   0.109E+02
DAV:   4    -0.753694127659E+02   -0.33612E+01   -0.33437E+01   488   0.338E+01
DAV:   5    -0.754488906611E+02   -0.79478E-01   -0.79218E-01   456   0.488E+00    0.143E+01
DAV:   6    -0.675968115316E+02    0.78521E+01   -0.11299E+01   520   0.197E+01    0.770E+00
DAV:   7    -0.651282648090E+02    0.24685E+01   -0.68380E+00   504   0.134E+01    0.295E+00
DAV:   8    -0.648290425427E+02    0.29922E+00   -0.51560E-01   512   0.406E+00    0.736E-01
DAV:   9    -0.647385770410E+02    0.90466E-01   -0.61360E-02   496   0.140E+00    0.399E-01
DAV:  10    -0.646744173268E+02    0.64160E-01   -0.35821E-02   552   0.107E+00    0.218E-01
DAV:  11    -0.646476356720E+02    0.26782E-01   -0.24672E-02   584   0.803E-01    0.137E-01
DAV:  12    -0.646465746337E+02    0.10610E-02   -0.62853E-03   472   0.362E-01    0.892E-02
DAV:  13    -0.646548098723E+02   -0.82352E-02   -0.39664E-03   424   0.265E-01    0.529E-02
DAV:  14    -0.646591558771E+02   -0.43460E-02   -0.13457E-03   336   0.141E-01    0.320E-02
DAV:  15    -0.646638894158E+02   -0.47335E-02   -0.92990E-04   344   0.125E-01    0.190E-02
DAV:  16    -0.646665271555E+02   -0.26377E-02   -0.62008E-04   360   0.792E-02    0.133E-02
DAV:  17    -0.646669642743E+02   -0.43712E-03   -0.60500E-05   352   0.338E-02    0.896E-03
DAV:  18    -0.646677131617E+02   -0.74889E-03   -0.31172E-04   336   0.477E-02    0.411E-03
DAV:  19    -0.646678341944E+02   -0.12103E-03   -0.43844E-05   320   0.214E-02    0.273E-03
DAV:  20    -0.646679065118E+02   -0.72317E-04   -0.21234E-05   320   0.158E-02
   1 F= -.64667907E+02 E0= -.64665719E+02  d E =-.646679E+02
 curvature:   0.00 expect dE= 0.000E+00 dE for cont linesearch  0.000E+00
 trial: gam= 0.00000 g(F)=  0.101E+01 g(S)=  0.126E+00 ort = 0.000E+00 (trialstep = 0.100E+01)
 search vector abs. value=  0.114E+01
 bond charge predicted
       N       E                     dE             d eps       ncg     rms          rms(c)
DAV:   1    -0.643384952787E+02    0.32934E+00   -0.16730E+02   464   0.984E+01    0.374E+00
DAV:   2    -0.643251682454E+02    0.13327E-01   -0.41248E+00   480   0.144E+01    0.220E+00
DAV:   3    -0.641972018086E+02    0.12797E+00   -0.43857E-01   496   0.421E+00    0.103E+00
DAV:   4    -0.641795889911E+02    0.17613E-01   -0.71539E-02   528   0.149E+00    0.344E-01
DAV:   5    -0.641774599604E+02    0.21290E-02   -0.74235E-03   504   0.490E-01    0.887E-02
DAV:   6    -0.641771500517E+02    0.30991E-03   -0.71671E-04   496   0.163E-01    0.455E-02
DAV:   7    -0.641772005654E+02   -0.50514E-04   -0.25631E-04   360   0.949E-02
   2 F= -.64177201E+02 E0= -.64176893E+02  d E =0.490706E+00
 trial-energy change:    0.490706  1 .order    0.393619   -1.137729    1.924966
 step:   0.3295(harm=  0.3715)  dis= 0.03987  next Energy=   -64.851853 (dE=-0.184E+00)
 bond charge predicted
       N       E                     dE             d eps       ncg     rms          rms(c)
DAV:   1    -0.649264193682E+02   -0.74927E+00   -0.68974E+01   384   0.550E+01    0.257E+00
DAV:   2    -0.649108825194E+02    0.15537E-01   -0.20131E+00   528   0.981E+00    0.147E+00
DAV:   3    -0.648527387640E+02    0.58144E-01   -0.26326E-01   464   0.351E+00    0.555E-01
DAV:   4    -0.648531517601E+02   -0.41300E-03   -0.32715E-02   464   0.110E+00    0.288E-01
DAV:   5    -0.648537827587E+02   -0.63100E-03   -0.49296E-03   416   0.417E-01    0.799E-02
DAV:   6    -0.648541059650E+02   -0.32321E-03   -0.82529E-04   464   0.181E-01    0.418E-02
DAV:   7    -0.648545507521E+02   -0.44479E-03   -0.31583E-04   368   0.959E-02    0.167E-02
DAV:   8    -0.648547160576E+02   -0.16531E-03   -0.39589E-05   352   0.445E-02    0.101E-02
DAV:   9    -0.648550763860E+02   -0.36033E-03   -0.14762E-04   344   0.502E-02    0.924E-03
DAV:  10    -0.648552502741E+02   -0.17389E-03   -0.55783E-05   328   0.361E-02    0.482E-03
DAV:  11    -0.648553394631E+02   -0.89189E-04   -0.40330E-05   312   0.237E-02
   3 F= -.64855339E+02 E0= -.64854730E+02  d E =-.187433E+00
 curvature:  -0.18 expect dE=-0.218E+00 dE for cont linesearch -0.463E-04
 trial: gam= 1.05228 g(F)=  0.114E+01 g(S)=  0.408E-01 ort =-0.169E-01 (trialstep = 0.410E+00)
 search vector abs. value=  0.240E+01
 bond charge predicted
       N       E                     dE             d eps       ncg     rms          rms(c)
DAV:   1    -0.648797534024E+02   -0.24503E-01   -0.55383E+01   448   0.537E+01    0.184E+00
DAV:   2    -0.648917995831E+02   -0.12046E-01   -0.94690E-01   472   0.694E+00    0.111E+00
DAV:   3    -0.648744629709E+02    0.17337E-01   -0.11514E-01   520   0.219E+00    0.559E-01
DAV:   4    -0.648712595683E+02    0.32034E-02   -0.16982E-02   528   0.774E-01    0.257E-01
DAV:   5    -0.648708540264E+02    0.40554E-03   -0.30916E-03   448   0.339E-01    0.550E-02
DAV:   6    -0.648708175218E+02    0.36505E-04   -0.70175E-04   488   0.158E-01
   4 F= -.64870818E+02 E0= -.64860495E+02  d E =-.154781E-01
 trial-energy change:   -0.015478  1 .order   -0.040504   -0.476298    0.395289
 step:   0.2062(harm=  0.2239)  dis= 0.03941  next Energy=   -64.972032 (dE=-0.117E+00)
 bond charge predicted
       N       E                     dE             d eps       ncg     rms          rms(c)
DAV:   1    -0.649689769263E+02   -0.98123E-01   -0.12665E+01   384   0.234E+01    0.881E-01
DAV:   2    -0.649773337168E+02   -0.83568E-02   -0.27309E-01   488   0.343E+00    0.566E-01
DAV:   3    -0.649727344847E+02    0.45992E-02   -0.38721E-02   520   0.137E+00    0.193E-01
DAV:   4    -0.649721613454E+02    0.57314E-03   -0.67698E-03   488   0.479E-01    0.113E-01
DAV:   5    -0.649721849973E+02   -0.23652E-04   -0.77766E-04   536   0.180E-01
   5 F= -.64972185E+02 E0= -.64967480E+02  d E =-.116846E+00
 curvature:  -0.23 expect dE=-0.484E-01 dE for cont linesearch -0.231E-05
 trial: gam= 0.20962 g(F)=  0.190E+00 g(S)=  0.213E-01 ort = 0.492E-02 (trialstep = 0.369E+00)
 search vector abs. value=  0.319E+00
 bond charge predicted
       N       E                     dE             d eps       ncg     rms          rms(c)
DAV:   1    -0.650090917725E+02   -0.36930E-01   -0.58287E+00   384   0.160E+01    0.508E-01
DAV:   2    -0.650149362635E+02   -0.58445E-02   -0.12043E-01   464   0.226E+00    0.317E-01
DAV:   3    -0.650129807546E+02    0.19555E-02   -0.12424E-02   616   0.744E-01    0.139E-01
DAV:   4    -0.650128923452E+02    0.88409E-04   -0.16818E-03   432   0.234E-01    0.627E-02
DAV:   5    -0.650128819913E+02    0.10354E-04   -0.16033E-04   368   0.741E-02
   6 F= -.65012882E+02 E0= -.65003062E+02  d E =-.406970E-01
 trial-energy change:   -0.040697  1 .order   -0.041089   -0.078187   -0.003991
 step:   0.3888(harm=  0.3888)  dis= 0.02585  next Energy=   -65.013382 (dE=-0.412E-01)
 bond charge predicted
       N       E                     dE             d eps       ncg     rms          rms(c)
DAV:   1    -0.650130233979E+02   -0.13105E-03   -0.17519E-02   448   0.869E-01    0.288E-02
DAV:   2    -0.650130381704E+02   -0.14773E-04   -0.35416E-04   432   0.127E-01
   7 F= -.65013038E+02 E0= -.65003023E+02  d E =-.408532E-01
 curvature:  -0.29 expect dE=-0.166E-01 dE for cont linesearch -0.508E-05
 trial: gam= 0.29251 g(F)=  0.500E-01 g(S)=  0.667E-02 ort = 0.235E-02 (trialstep = 0.373E+00)
 search vector abs. value=  0.853E-01
 bond charge predicted
       N       E                     dE             d eps       ncg     rms          rms(c)
DAV:   1    -0.650157951656E+02   -0.27718E-02   -0.16800E+00   400   0.893E+00    0.442E-01
DAV:   2    -0.650139999970E+02    0.17952E-02   -0.41099E-02   464   0.136E+00    0.245E-01
DAV:   3    -0.650128314597E+02    0.11685E-02   -0.81521E-03   504   0.568E-01    0.105E-01
DAV:   4    -0.650128217324E+02    0.97274E-05   -0.10268E-03   456   0.185E-01    0.611E-02
DAV:   5    -0.650128208906E+02    0.84177E-06   -0.94505E-05   288   0.729E-02
   8 F= -.65012821E+02 E0= -.65001579E+02  d E =0.217280E-03
 trial-energy change:    0.000217  1 .order    0.000366   -0.021388    0.022119
 step:   0.1833(harm=  0.1833)  dis= 0.00515  next Energy=   -65.018295 (dE=-0.526E-02)
 bond charge predicted
       N       E                     dE             d eps       ncg     rms          rms(c)
DAV:   1    -0.650190944831E+02   -0.62728E-02   -0.43639E-01   384   0.456E+00    0.217E-01
DAV:   2    -0.650187518128E+02    0.34267E-03   -0.10780E-02   488   0.697E-01    0.124E-01
DAV:   3    -0.650184378625E+02    0.31395E-03   -0.22303E-03   464   0.294E-01    0.487E-02
DAV:   4    -0.650184367954E+02    0.10670E-05   -0.27589E-04   392   0.967E-02
   9 F= -.65018437E+02 E0= -.65007858E+02  d E =-.539863E-02
 curvature:  -0.14 expect dE=-0.464E-02 dE for cont linesearch -0.492E-06
 trial: gam= 0.61132 g(F)=  0.264E-01 g(S)=  0.766E-02 ort = 0.555E-03 (trialstep = 0.335E+00)
 search vector abs. value=  0.666E-01
 bond charge predicted
       N       E                     dE             d eps       ncg     rms          rms(c)
DAV:   1    -0.650304663053E+02   -0.12028E-01   -0.84494E-01   384   0.621E+00    0.348E-01
DAV:   2    -0.650280855151E+02    0.23808E-02   -0.18595E-02   440   0.909E-01    0.183E-01
DAV:   3    -0.650274596359E+02    0.62588E-03   -0.44233E-03   472   0.439E-01    0.567E-02
DAV:   4    -0.650274167489E+02    0.42887E-04   -0.50449E-04   400   0.140E-01
  10 F= -.65027417E+02 E0= -.65015937E+02  d E =-.897995E-02
 trial-energy change:   -0.008980  1 .order   -0.008881   -0.011518   -0.006243
 step:   0.7316(harm=  0.7316)  dis= 0.01777  next Energy=   -65.031012 (dE=-0.126E-01)
 bond charge predicted
       N       E                     dE             d eps       ncg     rms          rms(c)
DAV:   1    -0.650361408986E+02   -0.86813E-02   -0.11808E+00   384   0.733E+00    0.420E-01
DAV:   2    -0.650324255263E+02    0.37154E-02   -0.26175E-02   416   0.108E+00    0.217E-01
DAV:   3    -0.650315738813E+02    0.85165E-03   -0.58366E-03   424   0.505E-01    0.711E-02
DAV:   4    -0.650315281827E+02    0.45699E-04   -0.64502E-04   448   0.159E-01
  11 F= -.65031528E+02 E0= -.65018984E+02  d E =-.130914E-01
 curvature:  -0.71 expect dE=-0.186E-01 dE for cont linesearch -0.112E-04
 trial: gam= 0.68501 g(F)=  0.119E-01 g(S)=  0.143E-01 ort = 0.103E-02 (trialstep = 0.414E+00)
 search vector abs. value=  0.589E-01
 bond charge predicted
       N       E                     dE             d eps       ncg     rms          rms(c)
DAV:   1    -0.650444348473E+02   -0.12861E-01   -0.10505E+00   440   0.693E+00    0.394E-01
DAV:   2    -0.650403062858E+02    0.41286E-02   -0.16940E-02   416   0.804E-01    0.202E-01
DAV:   3    -0.650393094411E+02    0.99684E-03   -0.28704E-03   496   0.338E-01    0.758E-02
DAV:   4    -0.650392079243E+02    0.10152E-03   -0.36775E-04   376   0.124E-01    0.269E-02
DAV:   5    -0.650392271146E+02   -0.19190E-04   -0.90753E-05   288   0.542E-02
  12 F= -.65039227E+02 E0= -.65027016E+02  d E =-.769893E-02
 trial-energy change:   -0.007699  1 .order   -0.007769   -0.011181   -0.004357
 step:   0.6789(harm=  0.6789)  dis= 0.01149  next Energy=   -65.040688 (dE=-0.916E-02)
 bond charge predicted
       N       E                     dE             d eps       ncg     rms          rms(c)
DAV:   1    -0.650427897079E+02   -0.35818E-02   -0.43264E-01   448   0.445E+00    0.251E-01
DAV:   2    -0.650410825870E+02    0.17071E-02   -0.66737E-03   400   0.512E-01    0.130E-01
DAV:   3    -0.650406491017E+02    0.43349E-03   -0.13218E-03   504   0.223E-01    0.465E-02
DAV:   4    -0.650406261094E+02    0.22992E-04   -0.15217E-04   272   0.803E-02
  13 F= -.65040626E+02 E0= -.65028672E+02  d E =-.909793E-02
 curvature:  -0.74 expect dE=-0.727E-01 dE for cont linesearch -0.112E-06
 trial: gam= 3.77502 g(F)=  0.796E-01 g(S)=  0.184E-01 ort = 0.944E-04 (trialstep = 0.293E-01)
 search vector abs. value=  0.939E+00
 bond charge predicted
       N       E                     dE             d eps       ncg     rms          rms(c)
DAV:   1    -0.650439749069E+02   -0.33258E-02   -0.78439E-02   448   0.187E+00    0.124E-01
DAV:   2    -0.650434590635E+02    0.51584E-03   -0.12527E-03   384   0.218E-01    0.624E-02
DAV:   3    -0.650433570501E+02    0.10201E-03   -0.36917E-04   512   0.110E-01    0.233E-02
DAV:   4    -0.650433709835E+02   -0.13933E-04   -0.39233E-05   272   0.394E-02
  14 F= -.65043371E+02 E0= -.65031450E+02  d E =-.274487E-02
 ZBRENT: can't locate minimum, use default step
 trial-energy change:   -0.002745  1 .order   -0.002738   -0.002886   -0.002591
 step:   0.1174(harm=  0.2872)  dis= 0.00726  next Energy=   -65.054752 (dE=-0.141E-01)
 bond charge predicted
       N       E                     dE             d eps       ncg     rms          rms(c)
DAV:   1    -0.650549447109E+02   -0.11588E-01   -0.70583E-01   384   0.562E+00    0.376E-01
DAV:   2    -0.650506326875E+02    0.43120E-02   -0.14933E-02   400   0.756E-01    0.185E-01
DAV:   3    -0.650496979417E+02    0.93475E-03   -0.26429E-03   424   0.317E-01    0.734E-02
DAV:   4    -0.650496283730E+02    0.69569E-04   -0.31292E-04   384   0.118E-01
  15 F= -.65049628E+02 E0= -.65038038E+02  d E =-.900226E-02
 curvature:  -0.78 expect dE=-0.350E-01 dE for cont linesearch -0.291E-02
 ZBRENT: increasing intervall
 opt :   0.2934  next Energy=   -65.054971 (dE=-0.143E-01)
 bond charge predicted
       N       E                     dE             d eps       ncg     rms          rms(c)
DAV:   1    -0.650773092896E+02   -0.27611E-01   -0.28426E+00   448   0.112E+01    0.774E-01
DAV:   2    -0.650580549462E+02    0.19254E-01   -0.50610E-02   400   0.132E+00    0.367E-01
DAV:   3    -0.650546323606E+02    0.34226E-02   -0.88751E-03   432   0.591E-01    0.156E-01
DAV:   4    -0.650542262516E+02    0.40611E-03   -0.13314E-03   448   0.234E-01    0.540E-02
DAV:   5    -0.650542539160E+02   -0.27664E-04   -0.21335E-04   368   0.882E-02
  16 F= -.65054254E+02 E0= -.65043231E+02  d E =-.136278E-01
 curvature:  -1.42 expect dE=-0.765E-01 dE for cont linesearch -0.266E-05
 trial: gam= 0.50283 g(F)=  0.438E-01 g(S)=  0.995E-02 ort =-0.132E-02 (trialstep = 0.822E-01)
 search vector abs. value=  0.290E+00
 bond charge predicted
       N       E                     dE             d eps       ncg     rms          rms(c)
DAV:   1    -0.650602321835E+02   -0.60059E-02   -0.18257E-01   448   0.292E+00    0.220E-01
DAV:   2    -0.650586458054E+02    0.15864E-02   -0.36712E-03   400   0.379E-01    0.109E-01
DAV:   3    -0.650583335544E+02    0.31225E-03   -0.10412E-03   512   0.187E-01    0.373E-02
DAV:   4    -0.650583599656E+02   -0.26411E-04   -0.10467E-04   280   0.638E-02
  17 F= -.65058360E+02 E0= -.65047519E+02  d E =-.410605E-02
 ZBRENT: can't locate minimum, use default step
 trial-energy change:   -0.004106  1 .order   -0.003965   -0.004359   -0.003571
 step:   0.3286(harm=  0.4545)  dis= 0.00901  next Energy=   -65.066312 (dE=-0.121E-01)
 bond charge predicted
       N       E                     dE             d eps       ncg     rms          rms(c)
DAV:   1    -0.650825902588E+02   -0.24257E-01   -0.16346E+00   448   0.872E+00    0.675E-01
DAV:   2    -0.650678944256E+02    0.14696E-01   -0.34136E-02   416   0.112E+00    0.319E-01
DAV:   3    -0.650652005566E+02    0.26939E-02   -0.68680E-03   456   0.507E-01    0.119E-01
DAV:   4    -0.650649294378E+02    0.27112E-03   -0.76897E-04   424   0.184E-01    0.416E-02
DAV:   5    -0.650649731473E+02   -0.43709E-04   -0.13065E-04   304   0.693E-02
  18 F= -.65064973E+02 E0= -.65054873E+02  d E =-.107192E-01
 curvature:  -1.10 expect dE=-0.286E-01 dE for cont linesearch -0.562E-03
 trial: gam= 0.25365 g(F)=  0.131E-01 g(S)=  0.129E-01 ort = 0.122E-01 (trialstep = 0.131E+00)
 search vector abs. value=  0.508E-01
 bond charge predicted
       N       E                     dE             d eps       ncg     rms          rms(c)
DAV:   1    -0.650695331559E+02   -0.46037E-02   -0.63985E-02   384   0.200E+00    0.179E-01
DAV:   2    -0.650686506933E+02    0.88246E-03   -0.19229E-03   400   0.311E-01    0.881E-02
DAV:   3    -0.650685085906E+02    0.14210E-03   -0.76151E-04   496   0.169E-01    0.255E-02
DAV:   4    -0.650685376435E+02   -0.29053E-04   -0.64825E-05   312   0.500E-02
  19 F= -.65068538E+02 E0= -.65058698E+02  d E =-.356450E-02
 ZBRENT: can't locate minimum, use default step
 trial-energy change:   -0.003564  1 .order   -0.003351   -0.003827   -0.002875
 step:   0.5258(harm=  0.5283)  dis= 0.00482  next Energy=   -65.072664 (dE=-0.769E-02)
 bond charge predicted
       N       E                     dE             d eps       ncg     rms          rms(c)
DAV:   1    -0.650825011116E+02   -0.13993E-01   -0.57705E-01   416   0.598E+00    0.543E-01
DAV:   2    -0.650743386628E+02    0.81624E-02   -0.17663E-02   400   0.934E-01    0.263E-01
DAV:   3    -0.650727719090E+02    0.15668E-02   -0.63260E-03   496   0.491E-01    0.765E-02
DAV:   4    -0.650726699402E+02    0.10197E-03   -0.53695E-04   416   0.138E-01    0.333E-02
DAV:   5    -0.650726928457E+02   -0.22906E-04   -0.87538E-05   304   0.588E-02
  20 F= -.65072693E+02 E0= -.65063784E+02  d E =-.771970E-02
 curvature:  -0.46 expect dE=-0.382E-01 dE for cont linesearch -0.191E-04
 trial: gam= 3.40381 g(F)=  0.759E-01 g(S)=  0.683E-02 ort =-0.145E-02 (trialstep = 0.162E-01)
 search vector abs. value=  0.662E+00
 bond charge predicted
       N       E                     dE             d eps       ncg     rms          rms(c)
DAV:   1    -0.650742655619E+02   -0.15956E-02   -0.12684E-02   400   0.870E-01    0.847E-02
DAV:   2    -0.650740424520E+02    0.22311E-03   -0.39924E-04   336   0.140E-01    0.402E-02
DAV:   3    -0.650740276681E+02    0.14784E-04   -0.23300E-04   392   0.886E-02
  21 F= -.65074028E+02 E0= -.65065269E+02  d E =-.133482E-02
 ZBRENT: can't locate minimum, use default step
 trial-energy change:   -0.001335  1 .order   -0.001207   -0.001257   -0.001157
 step:   0.0646(harm=  0.2040)  dis= 0.00229  next Energy=   -65.080627 (dE=-0.793E-02)
 bond charge predicted
       N       E                     dE             d eps       ncg     rms          rms(c)
DAV:   1    -0.650798340008E+02   -0.57915E-02   -0.11458E-01   384   0.259E+00    0.256E-01
DAV:   2    -0.650777396256E+02    0.20944E-02   -0.36538E-03   408   0.417E-01    0.120E-01
DAV:   3    -0.650773563617E+02    0.38326E-03   -0.17121E-03   456   0.237E-01    0.378E-02
DAV:   4    -0.650773538819E+02    0.24798E-05   -0.13056E-04   288   0.694E-02
  22 F= -.65077354E+02 E0= -.65068695E+02  d E =-.466104E-02
 curvature:  -0.39 expect dE=-0.246E-01 dE for cont linesearch -0.229E-02
 ZBRENT: increasing intervall
 opt :   0.1615  next Energy=   -65.082492 (dE=-0.980E-02)
 bond charge predicted
       N       E                     dE             d eps       ncg     rms          rms(c)
DAV:   1    -0.650919569374E+02   -0.14601E-01   -0.45532E-01   384   0.518E+00    0.513E-01
DAV:   2    -0.650835287252E+02    0.84282E-02   -0.14986E-02   400   0.835E-01    0.234E-01
DAV:   3    -0.650821066901E+02    0.14220E-02   -0.61828E-03   488   0.454E-01    0.748E-02
DAV:   4    -0.650820379154E+02    0.68775E-04   -0.47794E-04   400   0.126E-01
  23 F= -.65082038E+02 E0= -.65073806E+02  d E =-.934507E-02
 curvature:  -0.88 expect dE=-0.411E-01 dE for cont linesearch -0.185E-02
 ZBRENT: increasing intervall
 opt :   0.3554  next Energy=   -65.084442 (dE=-0.117E-01)
 bond charge predicted
       N       E                     dE             d eps       ncg     rms          rms(c)
DAV:   1    -0.651245619847E+02   -0.42455E-01   -0.18355E+00   384   0.104E+01    0.105E+00
DAV:   2    -0.650893303334E+02    0.35232E-01   -0.64042E-02   400   0.170E+00    0.464E-01
DAV:   3    -0.650841402448E+02    0.51901E-02   -0.19882E-02   488   0.843E-01    0.157E-01
DAV:   4    -0.650837602500E+02    0.37999E-03   -0.12880E-03   416   0.218E-01    0.638E-02
DAV:   5    -0.650837854977E+02   -0.25248E-04   -0.22633E-04   328   0.896E-02
  24 F= -.65083785E+02 E0= -.65076396E+02  d E =-.110927E-01
 curvature:  -1.14 expect dE=-0.635E-01 dE for cont linesearch -0.526E-03
 trial: gam= 0.42991 g(F)=  0.254E-01 g(S)=  0.303E-01 ort =-0.175E-01 (trialstep = 0.840E-01)
 search vector abs. value=  0.163E+00
 bond charge predicted
       N       E                     dE             d eps       ncg     rms          rms(c)
DAV:   1    -0.650889113314E+02   -0.51511E-02   -0.96513E-02   384   0.214E+00    0.182E-01
DAV:   2    -0.650877780418E+02    0.11333E-02   -0.26627E-03   416   0.319E-01    0.920E-02
DAV:   3    -0.650875084774E+02    0.26956E-03   -0.91963E-04   472   0.169E-01    0.304E-02
DAV:   4    -0.650875536824E+02   -0.45205E-04   -0.66757E-05   312   0.503E-02
  25 F= -.65087554E+02 E0= -.65080212E+02  d E =-.376818E-02
 ZBRENT: can't locate minimum, use default step
 trial-energy change:   -0.003768  1 .order   -0.003602   -0.004048   -0.003156
 step:   0.3360(harm=  0.3813)  dis= 0.00651  next Energy=   -65.092973 (dE=-0.919E-02)
 bond charge predicted
       N       E                     dE             d eps       ncg     rms          rms(c)
DAV:   1    -0.651054666177E+02   -0.17958E-01   -0.86483E-01   384   0.637E+00    0.558E-01
DAV:   2    -0.650947386713E+02    0.10728E-01   -0.24458E-02   408   0.949E-01    0.270E-01
DAV:   3    -0.650923469986E+02    0.23917E-02   -0.65421E-03   464   0.464E-01    0.949E-02
DAV:   4    -0.650922791279E+02    0.67871E-04   -0.55034E-04   432   0.143E-01
  26 F= -.65092279E+02 E0= -.65085256E+02  d E =-.849363E-02
 curvature:  -0.63 expect dE=-0.474E-01 dE for cont linesearch -0.457E-04
 trial: gam= 1.13761 g(F)=  0.678E-01 g(S)=  0.739E-02 ort = 0.344E-02 (trialstep = 0.745E-01)
 search vector abs. value=  0.294E+00
 bond charge predicted
       N       E                     dE             d eps       ncg     rms          rms(c)
DAV:   1    -0.650982898937E+02   -0.59429E-02   -0.13594E-01   400   0.252E+00    0.178E-01
DAV:   2    -0.650974433384E+02    0.84656E-03   -0.29815E-03   480   0.353E-01    0.988E-02
DAV:   3    -0.650971530641E+02    0.29027E-03   -0.11268E-03   488   0.184E-01    0.318E-02
DAV:   4    -0.650971649416E+02   -0.11878E-04   -0.12989E-04   328   0.735E-02
  27 F= -.65097165E+02 E0= -.65090740E+02  d E =-.488581E-02
 trial-energy change:   -0.004886  1 .order   -0.004921   -0.005895   -0.003948
 step:   0.2256(harm=  0.2256)  dis= 0.00587  next Energy=   -65.101202 (dE=-0.892E-02)
 bond charge predicted
       N       E                     dE             d eps       ncg     rms          rms(c)
DAV:   1    -0.651060457324E+02   -0.88927E-02   -0.56540E-01   400   0.512E+00    0.362E-01
DAV:   2    -0.651026357808E+02    0.34100E-02   -0.12289E-02   448   0.716E-01    0.200E-01
DAV:   3    -0.651013766108E+02    0.12592E-02   -0.47759E-03   496   0.377E-01    0.638E-02
DAV:   4    -0.651012983876E+02    0.78223E-04   -0.58177E-04   440   0.147E-01
  28 F= -.65101298E+02 E0= -.65096092E+02  d E =-.901926E-02
 curvature:  -0.42 expect dE=-0.752E-02 dE for cont linesearch -0.357E-04
 trial: gam= 0.32710 g(F)=  0.161E-01 g(S)=  0.185E-02 ort = 0.500E-02 (trialstep = 0.105E+00)
 search vector abs. value=  0.527E-01
 bond charge predicted
       N       E                     dE             d eps       ncg     rms          rms(c)
DAV:   1    -0.651033208206E+02   -0.19442E-02   -0.49427E-02   384   0.151E+00    0.100E-01
DAV:   2    -0.651030970757E+02    0.22374E-03   -0.10158E-03   480   0.207E-01    0.590E-02
DAV:   3    -0.651030218404E+02    0.75235E-04   -0.34491E-04   440   0.102E-01
  29 F= -.65103022E+02 E0= -.65098189E+02  d E =-.172345E-02
 trial-energy change:   -0.001723  1 .order   -0.001723   -0.002051   -0.001395
 step:   0.3274(harm=  0.3274)  dis= 0.00463  next Energy=   -65.104505 (dE=-0.321E-02)
 bond charge predicted
       N       E                     dE             d eps       ncg     rms          rms(c)
DAV:   1    -0.651062981050E+02   -0.32010E-02   -0.22867E-01   384   0.323E+00    0.216E-01
DAV:   2    -0.651052581488E+02    0.10400E-02   -0.47745E-03   416   0.444E-01    0.128E-01
DAV:   3    -0.651047540732E+02    0.50408E-03   -0.14863E-03   456   0.211E-01    0.405E-02
DAV:   4    -0.651047683576E+02   -0.14284E-04   -0.13888E-04   344   0.758E-02
  30 F= -.65104768E+02 E0= -.65100614E+02  d E =-.346997E-02
 curvature:  -0.44 expect dE=-0.573E-02 dE for cont linesearch -0.647E-04
 trial: gam= 0.65629 g(F)=  0.109E-01 g(S)=  0.208E-02 ort = 0.278E-02 (trialstep = 0.149E+00)
 search vector abs. value=  0.394E-01
 bond charge predicted
       N       E                     dE             d eps       ncg     rms          rms(c)
DAV:   1    -0.651069282654E+02   -0.21742E-02   -0.99209E-02   384   0.211E+00    0.114E-01
DAV:   2    -0.651066790855E+02    0.24918E-03   -0.20693E-03   480   0.300E-01    0.668E-02
DAV:   3    -0.651065673851E+02    0.11170E-03   -0.62747E-04   488   0.145E-01    0.205E-02
DAV:   4    -0.651065831352E+02   -0.15750E-04   -0.53516E-05   328   0.478E-02
  31 F= -.65106583E+02 E0= -.65102476E+02  d E =-.181478E-02
 trial-energy change:   -0.001815  1 .order   -0.001729   -0.002216   -0.001242
 step:   0.3397(harm=  0.3397)  dis= 0.00608  next Energy=   -65.107290 (dE=-0.252E-02)
 bond charge predicted
       N       E                     dE             d eps       ncg     rms          rms(c)
DAV:   1    -0.651080994771E+02   -0.15321E-02   -0.16175E-01   384   0.270E+00    0.146E-01
DAV:   2    -0.651076890121E+02    0.41047E-03   -0.33968E-03   464   0.386E-01    0.855E-02
DAV:   3    -0.651074765259E+02    0.21249E-03   -0.10282E-03   472   0.186E-01    0.257E-02
DAV:   4    -0.651074817303E+02   -0.52044E-05   -0.85230E-05   312   0.614E-02
  32 F= -.65107482E+02 E0= -.65103375E+02  d E =-.271337E-02
 curvature:  -0.45 expect dE=-0.922E-02 dE for cont linesearch -0.187E-05
 trial: gam= 1.76082 g(F)=  0.165E-01 g(S)=  0.396E-02 ort = 0.404E-03 (trialstep = 0.512E-01)
 search vector abs. value=  0.144E+00
 bond charge predicted
       N       E                     dE             d eps       ncg     rms          rms(c)
DAV:   1    -0.651087369635E+02   -0.12604E-02   -0.43733E-02   384   0.138E+00    0.729E-02
DAV:   2    -0.651086361100E+02    0.10085E-03   -0.86561E-04   448   0.189E-01    0.418E-02
DAV:   3    -0.651085919802E+02    0.44130E-04   -0.21479E-04   344   0.907E-02
  33 F= -.65108592E+02 E0= -.65104514E+02  d E =-.111025E-02
 ZBRENT: can't locate minimum, use default step
 trial-energy change:   -0.001110  1 .order   -0.001029   -0.001085   -0.000973
 step:   0.2050(harm=  0.4932)  dis= 0.00801  next Energy=   -65.112705 (dE=-0.522E-02)
 bond charge predicted
       N       E                     dE             d eps       ncg     rms          rms(c)
DAV:   1    -0.651129485161E+02   -0.43124E-02   -0.39415E-01   384   0.412E+00    0.223E-01
DAV:   2    -0.651119687758E+02    0.97974E-03   -0.77958E-03   464   0.559E-01    0.126E-01
DAV:   3    -0.651114725520E+02    0.49622E-03   -0.19653E-03   440   0.264E-01    0.331E-02
DAV:   4    -0.651114875190E+02   -0.14967E-04   -0.14539E-04   320   0.798E-02
  34 F= -.65111488E+02 E0= -.65107292E+02  d E =-.400579E-02
 curvature:  -0.96 expect dE=-0.178E-01 dE for cont linesearch -0.206E-02
 ZBRENT: increasing intervall
 opt :   0.5124  next Energy=   -65.116431 (dE=-0.895E-02)
 bond charge predicted
       N       E                     dE             d eps       ncg     rms          rms(c)
DAV:   1    -0.651219216513E+02   -0.10449E-01   -0.15667E+00   384   0.820E+00    0.451E-01
DAV:   2    -0.651177689542E+02    0.41527E-02   -0.31443E-02   456   0.112E+00    0.249E-01
DAV:   3    -0.651158998734E+02    0.18691E-02   -0.71146E-03   464   0.508E-01    0.671E-02
DAV:   4    -0.651159180408E+02   -0.18167E-04   -0.56464E-04   440   0.146E-01
  35 F= -.65115918E+02 E0= -.65111574E+02  d E =-.843631E-02
 curvature:  -2.32 expect dE=-0.528E-01 dE for cont linesearch -0.266E-02
 ZBRENT: increasing intervall
 opt :   1.1272  next Energy=   -65.120952 (dE=-0.135E-01)
 bond charge predicted
       N       E                     dE             d eps       ncg     rms          rms(c)
DAV:   1    -0.651491938439E+02   -0.33294E-01   -0.62899E+00   440   0.163E+01    0.949E-01
DAV:   2    -0.651263501276E+02    0.22844E-01   -0.92063E-02   448   0.189E+00    0.489E-01
DAV:   3    -0.651195284762E+02    0.68217E-02   -0.21596E-02   448   0.913E-01    0.146E-01
DAV:   4    -0.651194575722E+02    0.70904E-04   -0.16982E-03   456   0.245E-01    0.608E-02
DAV:   5    -0.651195812315E+02   -0.12366E-03   -0.18946E-04   352   0.856E-02    0.174E-02
DAV:   6    -0.651197228818E+02   -0.14165E-03   -0.50974E-05   336   0.483E-02    0.818E-03
DAV:   7    -0.651198880659E+02   -0.16518E-03   -0.50454E-05   328   0.366E-02    0.530E-03
DAV:   8    -0.651200179174E+02   -0.12985E-03   -0.33936E-05   328   0.292E-02    0.319E-03
DAV:   9    -0.651200936206E+02   -0.75703E-04   -0.22727E-05   312   0.222E-02
  36 F= -.65120094E+02 E0= -.65115729E+02  d E =-.126119E-01
 curvature:  -4.38 expect dE=-0.233E+00 dE for cont linesearch -0.158E-04
 trial: gam= 1.98406 g(F)=  0.520E-01 g(S)=  0.127E-02 ort = 0.720E-03 (trialstep = 0.616E-01)
 search vector abs. value=  0.623E+00
 bond charge predicted
       N       E                     dE             d eps       ncg     rms          rms(c)
DAV:   1    -0.651244723364E+02   -0.44544E-02   -0.27074E-01   384   0.344E+00    0.197E-01
DAV:   2    -0.651236123098E+02    0.86003E-03   -0.57422E-03   448   0.482E-01    0.107E-01
DAV:   3    -0.651232372149E+02    0.37509E-03   -0.15319E-03   424   0.233E-01    0.286E-02
DAV:   4    -0.651232368453E+02    0.36951E-06   -0.11006E-04   312   0.695E-02
  37 F= -.65123237E+02 E0= -.65118565E+02  d E =-.314322E-02
 ZBRENT: can't locate minimum, use default step
 trial-energy change:   -0.003143  1 .order   -0.003120   -0.003369   -0.002871
 step:   0.2463(harm=  0.4164)  dis= 0.01935  next Energy=   -65.131485 (dE=-0.114E-01)
 bond charge predicted
       N       E                     dE             d eps       ncg     rms          rms(c)
DAV:   1    -0.651419574274E+02   -0.18720E-01   -0.24297E+00   384   0.103E+01    0.614E-01
DAV:   2    -0.651327459630E+02    0.92115E-02   -0.53013E-02   440   0.144E+00    0.317E-01
DAV:   3    -0.651297188340E+02    0.30271E-02   -0.10557E-02   432   0.636E-01    0.934E-02
DAV:   4    -0.651296981882E+02    0.20646E-04   -0.83370E-04   424   0.178E-01
  38 F= -.65129698E+02 E0= -.65124116E+02  d E =-.960457E-02
 curvature:  -1.83 expect dE=-0.481E-01 dE for cont linesearch -0.192E-02
 ZBRENT: increasing intervall
 opt :   0.6158  next Energy=   -65.131377 (dE=-0.113E-01)
 bond charge predicted
       N       E                     dE             d eps       ncg     rms          rms(c)
DAV:   1    -0.651945196940E+02   -0.64801E-01   -0.97568E+00   448   0.204E+01    0.134E+00
DAV:   2    -0.651400411898E+02    0.54479E-01   -0.17088E-01   432   0.244E+00    0.603E-01
DAV:   3    -0.651312094817E+02    0.88317E-02   -0.23022E-02   472   0.105E+00    0.238E-01
DAV:   4    -0.651305929558E+02    0.61653E-03   -0.35572E-03   496   0.372E-01    0.804E-02
DAV:   5    -0.651308147580E+02   -0.22180E-03   -0.44579E-04   424   0.135E-01    0.223E-02
DAV:   6    -0.651310007752E+02   -0.18602E-03   -0.77994E-05   320   0.505E-02    0.111E-02
DAV:   7    -0.651312243254E+02   -0.22355E-03   -0.68776E-05   312   0.376E-02    0.646E-03
DAV:   8    -0.651313977211E+02   -0.17340E-03   -0.45228E-05   336   0.292E-02    0.440E-03
DAV:   9    -0.651315075176E+02   -0.10980E-03   -0.25958E-05   296   0.203E-02    0.278E-03
DAV:  10    -0.651315532628E+02   -0.45745E-04   -0.10470E-05   328   0.149E-02
  39 F= -.65131553E+02 E0= -.65124069E+02  d E =-.114596E-01
 curvature:  -1.60 expect dE=-0.175E+00 dE for cont linesearch -0.766E-03
 trial: gam= 0.00000 g(F)=  0.101E+00 g(S)=  0.861E-02 ort =-0.173E-01 (trialstep = 0.172E+00)
 search vector abs. value=  0.110E+00
 bond charge predicted
       N       E                     dE             d eps       ncg     rms          rms(c)
DAV:   1    -0.651390239965E+02   -0.75165E-02   -0.50402E-01   384   0.426E+00    0.281E-01
DAV:   2    -0.651375446025E+02    0.14794E-02   -0.14717E-02   504   0.709E-01    0.180E-01
DAV:   3    -0.651368625869E+02    0.68202E-03   -0.64854E-03   480   0.420E-01    0.741E-02
DAV:   4    -0.651368555517E+02    0.70352E-05   -0.10578E-03   512   0.178E-01    0.488E-02
DAV:   5    -0.651368549015E+02    0.65023E-06   -0.88433E-05   320   0.576E-02
  40 F= -.65136855E+02 E0= -.65129951E+02  d E =-.530164E-02
 trial-energy change:   -0.005302  1 .order   -0.005220   -0.018901    0.008461
 step:   0.1191(harm=  0.1191)  dis= 0.00515  next Energy=   -65.138081 (dE=-0.653E-02)
 bond charge predicted
       N       E                     dE             d eps       ncg     rms          rms(c)
DAV:   1    -0.651383766873E+02   -0.15211E-02   -0.49189E-02   400   0.133E+00    0.873E-02
DAV:   2    -0.651382443758E+02    0.13231E-03   -0.15145E-03   488   0.229E-01    0.567E-02
DAV:   3    -0.651381751046E+02    0.69271E-04   -0.55888E-04   504   0.124E-01
  41 F= -.65138175E+02 E0= -.65131091E+02  d E =-.662184E-02
 curvature:  -0.06 expect dE=-0.958E-03 dE for cont linesearch -0.776E-06
 trial: gam= 0.13590 g(F)=  0.124E-01 g(S)=  0.369E-02 ort = 0.119E-02 (trialstep = 0.162E+00)
 search vector abs. value=  0.184E-01
 bond charge predicted
       N       E                     dE             d eps       ncg     rms          rms(c)
DAV:   1    -0.651405651611E+02   -0.23208E-02   -0.42196E-02   400   0.143E+00    0.695E-02
DAV:   2    -0.651404876591E+02    0.77502E-04   -0.65787E-04   456   0.171E-01
  42 F= -.65140488E+02 E0= -.65133680E+02  d E =-.231255E-02
 ZBRENT: can't locate minimum, use default step
 trial-energy change:   -0.002313  1 .order   -0.002349   -0.002629   -0.002069
 step:   0.6471(harm=  0.7595)  dis= 0.00729  next Energy=   -65.144348 (dE=-0.617E-02)
 bond charge predicted
       N       E                     dE             d eps       ncg     rms          rms(c)
DAV:   1    -0.651441521366E+02   -0.35870E-02   -0.37439E-01   384   0.427E+00    0.219E-01
DAV:   2    -0.651434784425E+02    0.67369E-03   -0.58405E-03   464   0.505E-01    0.134E-01
DAV:   3    -0.651431561858E+02    0.32226E-03   -0.20140E-03   480   0.258E-01    0.475E-02
DAV:   4    -0.651431203728E+02    0.35813E-04   -0.30454E-04   416   0.104E-01
  43 F= -.65143120E+02 E0= -.65137742E+02  d E =-.494527E-02
 curvature:  -0.42 expect dE=-0.649E-02 dE for cont linesearch -0.235E-04
 trial: gam= 1.04220 g(F)=  0.111E-01 g(S)=  0.452E-02 ort =-0.102E-02 (trialstep = 0.142E+00)
 search vector abs. value=  0.335E-01
 bond charge predicted
       N       E                     dE             d eps       ncg     rms          rms(c)
DAV:   1    -0.651450730181E+02   -0.19168E-02   -0.61178E-02   400   0.174E+00    0.790E-02
DAV:   2    -0.651449560805E+02    0.11694E-03   -0.91539E-04   480   0.193E-01    0.455E-02
DAV:   3    -0.651449058989E+02    0.50182E-04   -0.22217E-04   384   0.943E-02
  44 F= -.65144906E+02 E0= -.65139797E+02  d E =-.178553E-02
 trial-energy change:   -0.001786  1 .order   -0.001772   -0.002073   -0.001471
 step:   0.4901(harm=  0.4901)  dis= 0.00774  next Energy=   -65.146688 (dE=-0.357E-02)
 bond charge predicted
       N       E                     dE             d eps       ncg     rms          rms(c)
DAV:   1    -0.651480591005E+02   -0.31030E-02   -0.36808E-01   400   0.427E+00    0.199E-01
DAV:   2    -0.651473445121E+02    0.71459E-03   -0.57093E-03   448   0.480E-01    0.113E-01
DAV:   3    -0.651469985498E+02    0.34596E-03   -0.14176E-03   480   0.235E-01    0.302E-02
DAV:   4    -0.651469974964E+02    0.10534E-05   -0.14583E-04   360   0.780E-02
  45 F= -.65146997E+02 E0= -.65142491E+02  d E =-.387712E-02
 curvature:  -0.56 expect dE=-0.326E-02 dE for cont linesearch -0.277E-04
 trial: gam= 0.16653 g(F)=  0.315E-02 g(S)=  0.262E-02 ort = 0.128E-02 (trialstep = 0.212E+00)
 search vector abs. value=  0.713E-02
 bond charge predicted
       N       E                     dE             d eps       ncg     rms          rms(c)
DAV:   1    -0.651482248320E+02   -0.12263E-02   -0.31314E-02   384   0.137E+00    0.102E-01
DAV:   2    -0.651479860858E+02    0.23875E-03   -0.11362E-03   480   0.235E-01    0.547E-02
DAV:   3    -0.651479115151E+02    0.74571E-04   -0.48680E-04   488   0.136E-01
  46 F= -.65147912E+02 E0= -.65143248E+02  d E =-.914019E-03
 trial-energy change:   -0.000914  1 .order   -0.000812   -0.001268   -0.000356
 step:   0.2946(harm=  0.2946)  dis= 0.00116  next Energy=   -65.147879 (dE=-0.881E-03)
 bond charge predicted
       N       E                     dE             d eps       ncg     rms          rms(c)
DAV:   1    -0.651480931109E+02   -0.10703E-03   -0.50706E-03   424   0.550E-01    0.439E-02
DAV:   2    -0.651480545744E+02    0.38537E-04   -0.15451E-04   336   0.935E-02
  47 F= -.65148055E+02 E0= -.65143182E+02  d E =-.105708E-02
 curvature:  -0.18 expect dE=-0.945E-03 dE for cont linesearch -0.480E-04
 trial: gam= 0.76547 g(F)=  0.329E-02 g(S)=  0.210E-02 ort = 0.140E-02 (trialstep = 0.139E+00)
 search vector abs. value=  0.117E-01
 bond charge predicted
       N       E                     dE             d eps       ncg     rms          rms(c)
DAV:   1    -0.651488710272E+02   -0.77792E-03   -0.14148E-02   392   0.101E+00    0.859E-02
DAV:   2    -0.651487146439E+02    0.15638E-03   -0.38032E-04   448   0.148E-01    0.454E-02
DAV:   3    -0.651486709700E+02    0.43674E-04   -0.19280E-04   368   0.943E-02
  48 F= -.65148671E+02 E0= -.65144046E+02  d E =-.616396E-03
 trial-energy change:   -0.000616  1 .order   -0.000631   -0.000898   -0.000364
 step:   0.2342(harm=  0.2342)  dis= 0.00130  next Energy=   -65.148810 (dE=-0.756E-03)
 bond charge predicted
       N       E                     dE             d eps       ncg     rms          rms(c)
DAV:   1    -0.651490016090E+02   -0.28697E-03   -0.71275E-03   392   0.709E-01    0.594E-02
DAV:   2    -0.651489291356E+02    0.72473E-04   -0.16630E-04   272   0.103E-01
  49 F= -.65148929E+02 E0= -.65144200E+02  d E =-.874561E-03
 curvature:  -0.21 expect dE=-0.630E-03 dE for cont linesearch -0.125E-03
 trial: gam= 0.00000 g(F)=  0.137E-02 g(S)=  0.160E-02 ort = 0.263E-02 (trialstep = 0.158E+00)
 search vector abs. value=  0.297E-02
 reached required accuracy - stopping structural energy minimisation
 writing wavefunctions
Sun Mar  6 20:21:41 CST 2022
