Sun Mar  6 20:32:38 CST 2022
 running on   48 total cores
 distrk:  each k-point on   48 cores,    1 groups
 distr:  one band on   24 cores,    2 groups
 using from now: INCAR     
 vasp.5.3.5 31Mar14 (build Jan 11 2016 19:50:55) complex                        
  
 POSCAR found type information on POSCAR  B  C  Na
 POSCAR found :  3 types and       9 ions
 scaLAPACK will be used

 ----------------------------------------------------------------------------- 
|                                                                             |
|           W    W    AA    RRRRR   N    N  II  N    N   GGGG   !!!           |
|           W    W   A  A   R    R  NN   N  II  NN   N  G    G  !!!           |
|           W    W  A    A  R    R  N N  N  II  N N  N  G       !!!           |
|           W WW W  AAAAAA  RRRRR   N  N N  II  N  N N  G  GGG   !            |
|           WW  WW  A    A  R   R   N   NN  II  N   NN  G    G                |
|           W    W  A    A  R    R  N    N  II  N    N   GGGG   !!!           |
|                                                                             |
|      For optimal performance we recommend to set                            |
|        NCORE= 4 - approx SQRT( number of cores)                             |
|      NCORE specifies how many cores store one orbital (NPAR=cpu/NCORE).     |
|      This setting can  greatly improve the performance of VASP for DFT.     |
|      The default, NPAR=number of cores might be grossly inefficient         |
|      on modern multi-core architectures or massively parallel machines.     |
|      Do your own testing !!!!                                               |
|      Unfortunately you need to use the default for GW and RPA calculations. |
|      (for HF NCORE is supported but not extensively tested yet)             |
|                                                                             |
 ----------------------------------------------------------------------------- 

 LDA part: xc-table for Pade appr. of Perdew
 POSCAR, INCAR and KPOINTS ok, starting setup
 WARNING: small aliasing (wrap around) errors must be expected
 FFT: planning ...
 WAVECAR not read
 entering main loop
       N       E                     dE             d eps       ncg     rms          rms(c)
DAV:   1     0.279008099678E+03    0.27901E+03   -0.12999E+04   456   0.917E+02
DAV:   2    -0.293082983728E+02   -0.30832E+03   -0.30002E+03   600   0.250E+02
DAV:   3    -0.759518302136E+02   -0.46644E+02   -0.46360E+02   440   0.107E+02
DAV:   4    -0.776625635651E+02   -0.17107E+01   -0.17026E+01   552   0.273E+01
DAV:   5    -0.776985116687E+02   -0.35948E-01   -0.35917E-01   504   0.326E+00    0.133E+01
DAV:   6    -0.714182729253E+02    0.62802E+01   -0.73691E+00   512   0.175E+01    0.742E+00
DAV:   7    -0.687322809344E+02    0.26860E+01   -0.55350E+00   528   0.127E+01    0.264E+00
DAV:   8    -0.683683572888E+02    0.36392E+00   -0.62147E-01   552   0.408E+00    0.101E+00
DAV:   9    -0.683273015417E+02    0.41056E-01   -0.88559E-02   464   0.141E+00    0.568E-01
DAV:  10    -0.683163445861E+02    0.10957E-01   -0.19003E-02   432   0.691E-01    0.261E-01
DAV:  11    -0.683142495585E+02    0.20950E-02   -0.47474E-03   472   0.372E-01    0.138E-01
DAV:  12    -0.683141255286E+02    0.12403E-03   -0.21956E-03   456   0.244E-01    0.875E-02
DAV:  13    -0.683142056689E+02   -0.80140E-04   -0.13609E-03   440   0.133E-01    0.446E-02
DAV:  14    -0.683157428296E+02   -0.15372E-02   -0.83019E-04   384   0.112E-01    0.329E-02
DAV:  15    -0.683178770839E+02   -0.21343E-02   -0.92094E-04   400   0.932E-02    0.175E-02
DAV:  16    -0.683184583080E+02   -0.58122E-03   -0.10569E-04   336   0.434E-02    0.886E-03
DAV:  17    -0.683187519879E+02   -0.29368E-03   -0.41536E-05   320   0.239E-02    0.430E-03
DAV:  18    -0.683188435292E+02   -0.91541E-04   -0.15519E-05   288   0.144E-02
   1 F= -.68318844E+02 E0= -.68266627E+02  d E =-.683188E+02
 curvature:   0.00 expect dE= 0.000E+00 dE for cont linesearch  0.000E+00
 trial: gam= 0.00000 g(F)=  0.467E+00 g(S)=  0.104E+00 ort = 0.000E+00 (trialstep = 0.100E+01)
 search vector abs. value=  0.571E+00
 bond charge predicted
       N       E                     dE             d eps       ncg     rms          rms(c)
DAV:   1    -0.685183107404E+02   -0.19956E+00   -0.84280E+01   448   0.687E+01    0.234E+00
DAV:   2    -0.684933356759E+02    0.24975E-01   -0.16253E+00   416   0.915E+00    0.133E+00
DAV:   3    -0.684702601864E+02    0.23075E-01   -0.81577E-02   472   0.210E+00    0.809E-01
DAV:   4    -0.684610288299E+02    0.92314E-02   -0.24489E-02   400   0.102E+00    0.179E-01
DAV:   5    -0.684604083278E+02    0.62050E-03   -0.42939E-03   432   0.359E-01    0.716E-02
DAV:   6    -0.684602760678E+02    0.13226E-03   -0.54922E-04   488   0.142E-01    0.307E-02
DAV:   7    -0.684602657867E+02    0.10281E-04   -0.95365E-05   328   0.628E-02
   2 F= -.68460266E+02 E0= -.68421174E+02  d E =-.141422E+00
 trial-energy change:   -0.141422  1 .order   -0.163842   -0.571476    0.243791
 step:   0.6642(harm=  0.7010)  dis= 0.06496  next Energy=   -68.502052 (dE=-0.183E+00)
 bond charge predicted
       N       E                     dE             d eps       ncg     rms          rms(c)
DAV:   1    -0.685072305839E+02   -0.46955E-01   -0.84223E+00   384   0.188E+01    0.768E-01
DAV:   2    -0.685075047957E+02   -0.27421E-03   -0.21405E-01   424   0.296E+00    0.477E-01
DAV:   3    -0.685038921609E+02    0.36126E-02   -0.11505E-02   528   0.744E-01    0.299E-01
DAV:   4    -0.685027717634E+02    0.11204E-02   -0.57596E-03   424   0.643E-01    0.422E-02
DAV:   5    -0.685027246479E+02    0.47115E-04   -0.76742E-04   432   0.208E-01
   3 F= -.68502725E+02 E0= -.68461133E+02  d E =-.183881E+00
 curvature:  -0.35 expect dE=-0.830E-01 dE for cont linesearch -0.143E-05
 trial: gam= 0.41786 g(F)=  0.188E+00 g(S)=  0.522E-01 ort = 0.154E-02 (trialstep = 0.933E+00)
 search vector abs. value=  0.341E+00
 bond charge predicted
       N       E                     dE             d eps       ncg     rms          rms(c)
DAV:   1    -0.685415112530E+02   -0.38739E-01   -0.42553E+01   384   0.426E+01    0.143E+00
DAV:   2    -0.685974120078E+02   -0.55901E-01   -0.10690E+00   456   0.636E+00    0.904E-01
DAV:   3    -0.685783072267E+02    0.19105E-01   -0.74946E-02   520   0.184E+00    0.316E-01
DAV:   4    -0.685763976471E+02    0.19096E-02   -0.98045E-03   448   0.575E-01    0.113E-01
DAV:   5    -0.685762189474E+02    0.17870E-03   -0.96310E-04   488   0.187E-01    0.488E-02
DAV:   6    -0.685761935051E+02    0.25442E-04   -0.11272E-04   352   0.673E-02
   4 F= -.68576194E+02 E0= -.68536971E+02  d E =-.734689E-01
 trial-energy change:   -0.073469  1 .order   -0.072933   -0.224792    0.078927
 step:   0.6923(harm=  0.6904)  dis= 0.05658  next Energy=   -68.586360 (dE=-0.836E-01)
 bond charge predicted
       N       E                     dE             d eps       ncg     rms          rms(c)
DAV:   1    -0.685857521938E+02   -0.95332E-02   -0.27112E+00   384   0.102E+01    0.357E-01
DAV:   2    -0.685878925730E+02   -0.21404E-02   -0.55951E-02   448   0.149E+00    0.239E-01
DAV:   3    -0.685868566320E+02    0.10359E-02   -0.44136E-03   488   0.446E-01    0.837E-02
DAV:   4    -0.685868357900E+02    0.20842E-04   -0.63675E-04   464   0.153E-01
   5 F= -.68586836E+02 E0= -.68546847E+02  d E =-.841111E-01
 curvature:  -0.49 expect dE=-0.589E-01 dE for cont linesearch -0.734E-06
 trial: gam= 0.58427 g(F)=  0.114E+00 g(S)=  0.688E-02 ort =-0.716E-03 (trialstep = 0.885E+00)
 search vector abs. value=  0.236E+00
 bond charge predicted
       N       E                     dE             d eps       ncg     rms          rms(c)
DAV:   1    -0.685602214292E+02    0.26635E-01   -0.27126E+01   384   0.336E+01    0.103E+00
DAV:   2    -0.685945401548E+02   -0.34319E-01   -0.68434E-01   456   0.502E+00    0.616E-01
DAV:   3    -0.685886190391E+02    0.59211E-02   -0.34461E-02   472   0.133E+00    0.304E-01
DAV:   4    -0.685875167394E+02    0.11023E-02   -0.10324E-02   432   0.631E-01    0.770E-02
DAV:   5    -0.685874651579E+02    0.51582E-04   -0.11252E-03   480   0.220E-01    0.456E-02
DAV:   6    -0.685874605916E+02    0.45663E-05   -0.14232E-04   360   0.742E-02
   6 F= -.68587461E+02 E0= -.68537339E+02  d E =-.624802E-03
 trial-energy change:   -0.000625  1 .order   -0.006859   -0.106152    0.092434
 step:   0.4313(harm=  0.4729)  dis= 0.02905  next Energy=   -68.611987 (dE=-0.252E-01)
 bond charge predicted
       N       E                     dE             d eps       ncg     rms          rms(c)
DAV:   1    -0.686074989045E+02   -0.20034E-01   -0.69450E+00   384   0.165E+01    0.518E-01
DAV:   2    -0.686138292692E+02   -0.63304E-02   -0.15415E-01   448   0.248E+00    0.319E-01
DAV:   3    -0.686121903793E+02    0.16389E-02   -0.85939E-03   440   0.682E-01    0.139E-01
DAV:   4    -0.686120617995E+02    0.12858E-03   -0.21226E-03   432   0.305E-01    0.391E-02
DAV:   5    -0.686120657261E+02   -0.39266E-05   -0.19192E-04   376   0.976E-02
   7 F= -.68612066E+02 E0= -.68567169E+02  d E =-.252299E-01
 curvature:  -0.46 expect dE=-0.165E-01 dE for cont linesearch -0.360E-06
 trial: gam= 0.32169 g(F)=  0.295E-01 g(S)=  0.628E-02 ort = 0.430E-03 (trialstep = 0.794E+00)
 search vector abs. value=  0.605E-01
 bond charge predicted
       N       E                     dE             d eps       ncg     rms          rms(c)
DAV:   1    -0.686232400679E+02   -0.11178E-01   -0.51694E+00   384   0.140E+01    0.453E-01
DAV:   2    -0.686266653266E+02   -0.34253E-02   -0.10792E-01   424   0.210E+00    0.267E-01
DAV:   3    -0.686260410000E+02    0.62433E-03   -0.66353E-03   432   0.542E-01    0.169E-01
DAV:   4    -0.686258444053E+02    0.19659E-03   -0.11337E-03   440   0.222E-01    0.792E-02
DAV:   5    -0.686258543357E+02   -0.99304E-05   -0.19692E-04   360   0.923E-02
   8 F= -.68625854E+02 E0= -.68582196E+02  d E =-.137886E-01
 trial-energy change:   -0.013789  1 .order   -0.013995   -0.028556    0.000567
 step:   0.7786(harm=  0.7786)  dis= 0.02571  next Energy=   -68.626066 (dE=-0.140E-01)
 bond charge predicted
       N       E                     dE             d eps       ncg     rms          rms(c)
DAV:   1    -0.686258754088E+02   -0.31003E-04   -0.19641E-03   472   0.270E-01    0.122E-02
DAV:   2    -0.686258841562E+02   -0.87474E-05   -0.43884E-05   312   0.478E-02
   9 F= -.68625884E+02 E0= -.68582195E+02  d E =-.138184E-01
 curvature:  -0.66 expect dE=-0.205E-01 dE for cont linesearch -0.503E-06
 trial: gam= 0.89305 g(F)=  0.249E-01 g(S)=  0.638E-02 ort = 0.216E-03 (trialstep = 0.599E+00)
 search vector abs. value=  0.799E-01
 bond charge predicted
       N       E                     dE             d eps       ncg     rms          rms(c)
DAV:   1    -0.686393701454E+02   -0.13495E-01   -0.37011E+00   384   0.115E+01    0.437E-01
DAV:   2    -0.686386356713E+02    0.73447E-03   -0.77078E-02   416   0.171E+00    0.278E-01
DAV:   3    -0.686372888010E+02    0.13469E-02   -0.43935E-03   464   0.470E-01    0.161E-01
DAV:   4    -0.686368999473E+02    0.38885E-03   -0.24693E-03   440   0.359E-01    0.336E-02
DAV:   5    -0.686369065354E+02   -0.65881E-05   -0.26439E-04   408   0.121E-01
  10 F= -.68636907E+02 E0= -.68594665E+02  d E =-.110224E-01
 trial-energy change:   -0.011022  1 .order   -0.011052   -0.018848   -0.003257
 step:   0.7241(harm=  0.7241)  dis= 0.02551  next Energy=   -68.637277 (dE=-0.114E-01)
 bond charge predicted
       N       E                     dE             d eps       ncg     rms          rms(c)
DAV:   1    -0.686374731839E+02   -0.57324E-03   -0.16243E-01   384   0.241E+00    0.929E-02
DAV:   2    -0.686374459659E+02    0.27218E-04   -0.35887E-03   416   0.354E-01    0.610E-02
DAV:   3    -0.686373793389E+02    0.66627E-04   -0.20837E-04   352   0.101E-01
  11 F= -.68637379E+02 E0= -.68595455E+02  d E =-.114952E-01
 curvature:  -0.92 expect dE=-0.314E-01 dE for cont linesearch -0.583E-04
 trial: gam= 1.03046 g(F)=  0.253E-01 g(S)=  0.882E-02 ort = 0.225E-02 (trialstep = 0.403E+00)
 search vector abs. value=  0.124E+00
 bond charge predicted
       N       E                     dE             d eps       ncg     rms          rms(c)
DAV:   1    -0.686573439125E+02   -0.19898E-01   -0.23715E+00   384   0.906E+00    0.514E-01
DAV:   2    -0.686502583748E+02    0.70855E-02   -0.60792E-02   416   0.140E+00    0.306E-01
DAV:   3    -0.686482067047E+02    0.20517E-02   -0.40607E-03   424   0.431E-01    0.177E-01
DAV:   4    -0.686473922822E+02    0.81442E-03   -0.34697E-03   448   0.408E-01    0.367E-02
DAV:   5    -0.686474024880E+02   -0.10206E-04   -0.23284E-04   384   0.120E-01
  12 F= -.68647402E+02 E0= -.68603775E+02  d E =-.100231E-01
 trial-energy change:   -0.010023  1 .order   -0.010605   -0.014696   -0.006513
 step:   0.7246(harm=  0.7246)  dis= 0.02799  next Energy=   -68.650576 (dE=-0.132E-01)
 bond charge predicted
       N       E                     dE             d eps       ncg     rms          rms(c)
DAV:   1    -0.686575105605E+02   -0.10118E-01   -0.15167E+00   416   0.727E+00    0.417E-01
DAV:   2    -0.686528674539E+02    0.46431E-02   -0.40386E-02   416   0.112E+00    0.249E-01
DAV:   3    -0.686514059035E+02    0.14616E-02   -0.27730E-03   384   0.349E-01    0.145E-01
DAV:   4    -0.686508606641E+02    0.54524E-03   -0.23916E-03   448   0.342E-01    0.301E-02
DAV:   5    -0.686508867355E+02   -0.26071E-04   -0.15323E-04   336   0.101E-01
  13 F= -.68650887E+02 E0= -.68605985E+02  d E =-.135074E-01
 curvature:  -1.23 expect dE=-0.402E-01 dE for cont linesearch -0.120E-03
 trial: gam= 0.83850 g(F)=  0.246E-01 g(S)=  0.804E-02 ort = 0.347E-02 (trialstep = 0.461E+00)
 search vector abs. value=  0.125E+00
 bond charge predicted
       N       E                     dE             d eps       ncg     rms          rms(c)
DAV:   1    -0.686855340651E+02   -0.34673E-01   -0.29732E+00   384   0.103E+01    0.687E-01
DAV:   2    -0.686676031827E+02    0.17931E-01   -0.89896E-02   416   0.172E+00    0.394E-01
DAV:   3    -0.686639831031E+02    0.36201E-02   -0.64736E-03   424   0.535E-01    0.222E-01
DAV:   4    -0.686623493988E+02    0.16337E-02   -0.51197E-03   440   0.444E-01    0.623E-02
DAV:   5    -0.686623543439E+02   -0.49451E-05   -0.40660E-04   384   0.139E-01
  14 F= -.68662354E+02 E0= -.68618096E+02  d E =-.114676E-01
 trial-energy change:   -0.011468  1 .order   -0.012056   -0.016403   -0.007709
 step:   0.8699(harm=  0.8699)  dis= 0.02784  next Energy=   -68.666361 (dE=-0.155E-01)
 bond charge predicted
       N       E                     dE             d eps       ncg     rms          rms(c)
DAV:   1    -0.686834006326E+02   -0.21051E-01   -0.23438E+00   384   0.919E+00    0.615E-01
DAV:   2    -0.686690598516E+02    0.14341E-01   -0.72737E-02   416   0.153E+00    0.356E-01
DAV:   3    -0.686659904967E+02    0.30694E-02   -0.53568E-03   432   0.477E-01    0.202E-01
DAV:   4    -0.686646215148E+02    0.13690E-02   -0.42548E-03   448   0.408E-01    0.554E-02
DAV:   5    -0.686646646356E+02   -0.43121E-04   -0.32872E-04   384   0.126E-01
  15 F= -.68664665E+02 E0= -.68620904E+02  d E =-.137779E-01
 curvature:  -1.53 expect dE=-0.784E-01 dE for cont linesearch -0.294E-04
 trial: gam= 1.87024 g(F)=  0.428E-01 g(S)=  0.836E-02 ort =-0.155E-02 (trialstep = 0.141E+00)
 search vector abs. value=  0.484E+00
 bond charge predicted
       N       E                     dE             d eps       ncg     rms          rms(c)
DAV:   1    -0.686811729891E+02   -0.16551E-01   -0.10150E+00   416   0.588E+00    0.456E-01
DAV:   2    -0.686731749806E+02    0.79980E-02   -0.35943E-02   416   0.997E-01    0.266E-01
DAV:   3    -0.686713270196E+02    0.18480E-02   -0.29752E-03   416   0.349E-01    0.150E-01
DAV:   4    -0.686705481329E+02    0.77889E-03   -0.23205E-03   448   0.309E-01    0.368E-02
DAV:   5    -0.686706010034E+02   -0.52870E-04   -0.13348E-04   328   0.880E-02
  16 F= -.68670601E+02 E0= -.68627204E+02  d E =-.593637E-02
 ZBRENT: can't locate minimum, use default step
 trial-energy change:   -0.005936  1 .order   -0.006326   -0.006785   -0.005866
 step:   0.5626(harm=  1.0394)  dis= 0.03653  next Energy=   -68.689733 (dE=-0.251E-01)
 bond charge predicted
       N       E                     dE             d eps       ncg     rms          rms(c)
DAV:   1    -0.687718296318E+02   -0.10128E+00   -0.91795E+00   416   0.175E+01    0.133E+00
DAV:   2    -0.687012319113E+02    0.70598E-01   -0.26861E-01   432   0.295E+00    0.723E-01
DAV:   3    -0.686874151597E+02    0.13817E-01   -0.25408E-02   432   0.111E+00    0.340E-01
DAV:   4    -0.686837361014E+02    0.36791E-02   -0.94421E-03   448   0.609E-01    0.951E-02
DAV:   5    -0.686837680382E+02   -0.31937E-04   -0.78894E-04   448   0.185E-01
  17 F= -.68683768E+02 E0= -.68641860E+02  d E =-.191034E-01
 curvature:  -3.75 expect dE=-0.227E+00 dE for cont linesearch -0.974E-02
 ZBRENT: increasing intervall
 opt :   1.4065  next Energy=   -68.708433 (dE=-0.438E-01)
 bond charge predicted
       N       E                     dE             d eps       ncg     rms          rms(c)
DAV:   1    -0.690196852079E+02   -0.33595E+00   -0.37852E+01   416   0.357E+01    0.273E+00
DAV:   2    -0.687669165564E+02    0.25277E+00   -0.11772E+00   416   0.632E+00    0.145E+00
DAV:   3    -0.687086323494E+02    0.58284E-01   -0.24552E-01   448   0.285E+00    0.635E-01
DAV:   4    -0.686993421673E+02    0.92902E-02   -0.49483E-02   416   0.952E-01    0.395E-01
DAV:   5    -0.686917864802E+02    0.75557E-02   -0.13663E-02   448   0.585E-01    0.112E-01
DAV:   6    -0.686918610922E+02   -0.74612E-04   -0.11473E-03   456   0.223E-01    0.505E-02
DAV:   7    -0.686923265008E+02   -0.46541E-03   -0.26223E-04   392   0.998E-02    0.357E-02
DAV:   8    -0.686926207531E+02   -0.29425E-03   -0.32132E-04   400   0.753E-02    0.169E-02
DAV:   9    -0.686930176964E+02   -0.39694E-03   -0.26079E-04   376   0.627E-02    0.970E-03
DAV:  10    -0.686931519144E+02   -0.13422E-03   -0.58967E-05   344   0.301E-02    0.548E-03
DAV:  11    -0.686931887715E+02   -0.36857E-04   -0.15489E-05   344   0.162E-02
  18 F= -.68693189E+02 E0= -.68653394E+02  d E =-.285241E-01
 curvature:  -9.49 expect dE=-0.148E+01 dE for cont linesearch -0.727E-03
 trial: gam= 2.36370 g(F)=  0.119E+00 g(S)=  0.373E-01 ort =-0.609E-02 (trialstep = 0.673E-01)
 search vector abs. value=  0.283E+01
 bond charge predicted
       N       E                     dE             d eps       ncg     rms          rms(c)
DAV:   1    -0.687166573885E+02   -0.23505E-01   -0.13403E+00   424   0.683E+00    0.552E-01
DAV:   2    -0.687056904645E+02    0.10967E-01   -0.51074E-02   424   0.117E+00    0.321E-01
DAV:   3    -0.687030871688E+02    0.26033E-02   -0.42387E-03   408   0.423E-01    0.179E-01
DAV:   4    -0.687019846463E+02    0.11025E-02   -0.34109E-03   448   0.381E-01    0.389E-02
DAV:   5    -0.687019682643E+02    0.16382E-04   -0.17933E-04   320   0.108E-01
  19 F= -.68701968E+02 E0= -.68661628E+02  d E =-.877949E-02
 ZBRENT: can't locate minimum, use default step
 trial-energy change:   -0.008779  1 .order   -0.009028   -0.009558   -0.008497
 step:   0.2692(harm=  0.6060)  dis= 0.04273  next Energy=   -68.736218 (dE=-0.430E-01)
 bond charge predicted
       N       E                     dE             d eps       ncg     rms          rms(c)
DAV:   1    -0.688466423162E+02   -0.14466E+00   -0.12092E+01   416   0.203E+01    0.161E+00
DAV:   2    -0.687460207562E+02    0.10062E+00   -0.37920E-01   408   0.349E+00    0.867E-01
DAV:   3    -0.687264787950E+02    0.19542E-01   -0.35454E-02   464   0.132E+00    0.396E-01
DAV:   4    -0.687215412206E+02    0.49376E-02   -0.12900E-02   432   0.728E-01    0.976E-02
DAV:   5    -0.687215237752E+02    0.17445E-04   -0.92154E-04   480   0.217E-01
  20 F= -.68721524E+02 E0= -.68679694E+02  d E =-.283350E-01
 curvature:  -3.68 expect dE=-0.218E+00 dE for cont linesearch -0.117E-01
 ZBRENT: increasing intervall
 opt :   0.6731  next Energy=   -68.747266 (dE=-0.541E-01)
 bond charge predicted
       N       E                     dE             d eps       ncg     rms          rms(c)
DAV:   1    -0.692158360970E+02   -0.49429E+00   -0.50282E+01   416   0.413E+01    0.336E+00
DAV:   2    -0.688319124556E+02    0.38392E+00   -0.18626E+00   432   0.739E+00    0.173E+00
DAV:   3    -0.687519752451E+02    0.79937E-01   -0.28627E-01   456   0.322E+00    0.706E-01
DAV:   4    -0.687473363927E+02    0.46389E-02   -0.68288E-02   416   0.111E+00    0.502E-01
DAV:   5    -0.687313220200E+02    0.16014E-01   -0.27856E-02   424   0.769E-01    0.124E-01
DAV:   6    -0.687315001625E+02   -0.17814E-03   -0.18532E-03   480   0.291E-01    0.597E-02
DAV:   7    -0.687319356073E+02   -0.43544E-03   -0.38351E-04   392   0.121E-01    0.407E-02
DAV:   8    -0.687322517610E+02   -0.31615E-03   -0.33586E-04   392   0.797E-02    0.175E-02
DAV:   9    -0.687326022857E+02   -0.35052E-03   -0.31523E-04   408   0.725E-02    0.171E-02
DAV:  10    -0.687326981628E+02   -0.95877E-04   -0.10217E-04   392   0.401E-02
  21 F= -.68732698E+02 E0= -.68687377E+02  d E =-.395094E-01
 curvature:  -8.08 expect dE=-0.676E+00 dE for cont linesearch -0.182E-02
 ZBRENT: bracketing found
 ZBRENT: interpolating
 opt :   0.5883  next Energy=   -68.733770 (dE=-0.406E-01)
 bond charge predicted
       N       E                     dE             d eps       ncg     rms          rms(c)
DAV:   1    -0.687625714810E+02   -0.29969E-01   -0.22665E+00   448   0.920E+00    0.774E-01
DAV:   2    -0.687424839044E+02    0.20088E-01   -0.10314E-01   432   0.163E+00    0.458E-01
DAV:   3    -0.687358380122E+02    0.66459E-02   -0.90509E-03   400   0.564E-01    0.252E-01
DAV:   4    -0.687337110447E+02    0.21270E-02   -0.55462E-03   448   0.501E-01    0.473E-02
DAV:   5    -0.687336491312E+02    0.61914E-04   -0.30707E-04   424   0.134E-01
  22 F= -.68733649E+02 E0= -.68689044E+02  d E =-.404604E-01
 curvature:  -4.76 expect dE=-0.294E+00 dE for cont linesearch -0.188E-06
 trial: gam= 0.36619 g(F)=  0.538E-01 g(S)=  0.796E-02 ort =-0.335E-03 (trialstep = 0.172E+00)
 search vector abs. value=  0.441E+00
 bond charge predicted
       N       E                     dE             d eps       ncg     rms          rms(c)
DAV:   1    -0.687586344963E+02   -0.24923E-01   -0.13209E+00   432   0.712E+00    0.588E-01
DAV:   2    -0.687461590592E+02    0.12475E-01   -0.59071E-02   432   0.128E+00    0.336E-01
DAV:   3    -0.687432325164E+02    0.29265E-02   -0.45913E-03   416   0.427E-01    0.186E-01
DAV:   4    -0.687422183640E+02    0.10142E-02   -0.32807E-03   456   0.385E-01    0.343E-02
DAV:   5    -0.687421760226E+02    0.42341E-04   -0.14704E-04   336   0.983E-02
  23 F= -.68742176E+02 E0= -.68696890E+02  d E =-.852689E-02
 trial-energy change:   -0.008527  1 .order   -0.008363   -0.010578   -0.006147
 step:   0.4094(harm=  0.4094)  dis= 0.02456  next Energy=   -68.746276 (dE=-0.126E-01)
 bond charge predicted
       N       E                     dE             d eps       ncg     rms          rms(c)
DAV:   1    -0.687799380978E+02   -0.37720E-01   -0.25504E+00   432   0.985E+00    0.808E-01
DAV:   2    -0.687543134558E+02    0.25625E-01   -0.10872E-01   432   0.175E+00    0.449E-01
DAV:   3    -0.687492218519E+02    0.50916E-02   -0.80761E-03   424   0.580E-01    0.252E-01
DAV:   4    -0.687470918834E+02    0.21300E-02   -0.64083E-03   456   0.521E-01    0.527E-02
DAV:   5    -0.687470721300E+02    0.19753E-04   -0.32074E-04   368   0.132E-01
  24 F= -.68747072E+02 E0= -.68700964E+02  d E =-.134230E-01
 curvature:  -1.46 expect dE=-0.194E-01 dE for cont linesearch -0.114E-03
 trial: gam= 0.12615 g(F)=  0.884E-02 g(S)=  0.444E-02 ort = 0.586E-02 (trialstep = 0.219E+00)
 search vector abs. value=  0.218E-01
 bond charge predicted
       N       E                     dE             d eps       ncg     rms          rms(c)
DAV:   1    -0.687504062783E+02   -0.33144E-02   -0.93129E-02   392   0.208E+00    0.132E-01
DAV:   2    -0.687498235531E+02    0.58273E-03   -0.32966E-03   432   0.331E-01    0.869E-02
DAV:   3    -0.687496330029E+02    0.19055E-03   -0.26430E-04   272   0.104E-01    0.513E-02
DAV:   4    -0.687495898496E+02    0.43153E-04   -0.30083E-04   384   0.104E-01
  25 F= -.68749590E+02 E0= -.68703407E+02  d E =-.251772E-02
 trial-energy change:   -0.002518  1 .order   -0.002429   -0.003071   -0.001787
 step:   0.5237(harm=  0.5237)  dis= 0.00423  next Energy=   -68.750743 (dE=-0.367E-02)
 bond charge predicted
       N       E                     dE             d eps       ncg     rms          rms(c)
DAV:   1    -0.687525501078E+02   -0.29171E-02   -0.18125E-01   384   0.291E+00    0.183E-01
DAV:   2    -0.687514434369E+02    0.11067E-02   -0.63673E-03   416   0.460E-01    0.121E-01
DAV:   3    -0.687510782867E+02    0.36515E-03   -0.55644E-04   432   0.146E-01    0.718E-02
DAV:   4    -0.687509189202E+02    0.15937E-03   -0.44639E-04   432   0.125E-01    0.167E-02
DAV:   5    -0.687509408351E+02   -0.21915E-04   -0.42604E-05   344   0.454E-02
  26 F= -.68750941E+02 E0= -.68704863E+02  d E =-.386871E-02
 curvature:  -0.41 expect dE=-0.255E-02 dE for cont linesearch -0.671E-05
 trial: gam= 0.49214 g(F)=  0.469E-02 g(S)=  0.159E-02 ort = 0.600E-03 (trialstep = 0.280E+00)
 search vector abs. value=  0.121E-01
 bond charge predicted
       N       E                     dE             d eps       ncg     rms          rms(c)
DAV:   1    -0.687532600539E+02   -0.23411E-02   -0.83189E-02   480   0.202E+00    0.134E-01
DAV:   2    -0.687526950214E+02    0.56503E-03   -0.26495E-03   424   0.288E-01    0.825E-02
DAV:   3    -0.687525254280E+02    0.16959E-03   -0.27653E-04   320   0.107E-01    0.474E-02
DAV:   4    -0.687524710145E+02    0.54414E-04   -0.21346E-04   312   0.951E-02
  27 F= -.68752471E+02 E0= -.68706041E+02  d E =-.153018E-02
 trial-energy change:   -0.001530  1 .order   -0.001503   -0.001839   -0.001167
 step:   0.7669(harm=  0.7669)  dis= 0.00569  next Energy=   -68.753459 (dE=-0.252E-02)
 bond charge predicted
       N       E                     dE             d eps       ncg     rms          rms(c)
DAV:   1    -0.687558532475E+02   -0.33278E-02   -0.25157E-01   480   0.352E+00    0.235E-01
DAV:   2    -0.687541597354E+02    0.16935E-02   -0.79888E-03   424   0.503E-01    0.144E-01
DAV:   3    -0.687536544541E+02    0.50528E-03   -0.89269E-04   400   0.185E-01    0.834E-02
DAV:   4    -0.687534561007E+02    0.19835E-03   -0.56779E-04   448   0.150E-01    0.205E-02
DAV:   5    -0.687534625796E+02   -0.64789E-05   -0.52457E-05   312   0.514E-02
  28 F= -.68753463E+02 E0= -.68706595E+02  d E =-.252174E-02
 curvature:  -0.71 expect dE=-0.410E-02 dE for cont linesearch -0.277E-07
 trial: gam= 0.97150 g(F)=  0.430E-02 g(S)=  0.149E-02 ort = 0.218E-04 (trialstep = 0.265E+00)
 search vector abs. value=  0.173E-01
 bond charge predicted
       N       E                     dE             d eps       ncg     rms          rms(c)
DAV:   1    -0.687559253186E+02   -0.24692E-02   -0.99500E-02   384   0.226E+00    0.159E-01
DAV:   2    -0.687551317489E+02    0.79357E-03   -0.35718E-03   424   0.332E-01    0.955E-02
DAV:   3    -0.687548783718E+02    0.25338E-03   -0.32330E-04   288   0.112E-01    0.538E-02
DAV:   4    -0.687548035043E+02    0.74868E-04   -0.25847E-04   368   0.102E-01
  29 F= -.68754804E+02 E0= -.68707671E+02  d E =-.134092E-02
 trial-energy change:   -0.001341  1 .order   -0.001282   -0.001540   -0.001024
 step:   0.7904(harm=  0.7904)  dis= 0.00729  next Energy=   -68.755759 (dE=-0.230E-02)
 bond charge predicted
       N       E                     dE             d eps       ncg     rms          rms(c)
DAV:   1    -0.687606392428E+02   -0.57609E-02   -0.39374E-01   384   0.448E+00    0.317E-01
DAV:   2    -0.687575176473E+02    0.31216E-02   -0.13869E-02   432   0.660E-01    0.189E-01
DAV:   3    -0.687565456067E+02    0.97204E-03   -0.12953E-03   424   0.222E-01    0.107E-01
DAV:   4    -0.687562147941E+02    0.33081E-03   -0.95951E-04   448   0.197E-01    0.182E-02
DAV:   5    -0.687562327550E+02   -0.17961E-04   -0.50250E-05   336   0.556E-02
  30 F= -.68756233E+02 E0= -.68708656E+02  d E =-.277018E-02
 curvature:  -1.18 expect dE=-0.474E-02 dE for cont linesearch -0.105E-03
 trial: gam= 0.44849 g(F)=  0.280E-02 g(S)=  0.124E-02 ort = 0.124E-02 (trialstep = 0.370E+00)
 search vector abs. value=  0.863E-02
 bond charge predicted
       N       E                     dE             d eps       ncg     rms          rms(c)
DAV:   1    -0.687584252079E+02   -0.22104E-02   -0.10279E-01   400   0.219E+00    0.137E-01
DAV:   2    -0.687578343841E+02    0.59082E-03   -0.33193E-03   424   0.336E-01    0.874E-02
DAV:   3    -0.687576465121E+02    0.18787E-03   -0.28879E-04   312   0.107E-01    0.517E-02
DAV:   4    -0.687575767054E+02    0.69807E-04   -0.20907E-04   336   0.927E-02
  31 F= -.68757577E+02 E0= -.68710050E+02  d E =-.134395E-02
 trial-energy change:   -0.001344  1 .order   -0.001351   -0.001699   -0.001002
 step:   0.9015(harm=  0.9015)  dis= 0.00481  next Energy=   -68.758303 (dE=-0.207E-02)
 bond charge predicted
       N       E                     dE             d eps       ncg     rms          rms(c)
DAV:   1    -0.687599264089E+02   -0.22799E-02   -0.21140E-01   416   0.314E+00    0.197E-01
DAV:   2    -0.687587202605E+02    0.12061E-02   -0.64842E-03   416   0.464E-01    0.126E-01
DAV:   3    -0.687583430775E+02    0.37718E-03   -0.63701E-04   416   0.153E-01    0.752E-02
DAV:   4    -0.687581833868E+02    0.15969E-03   -0.38011E-04   448   0.121E-01    0.196E-02
DAV:   5    -0.687581928690E+02   -0.94822E-05   -0.43871E-05   320   0.452E-02
  32 F= -.68758193E+02 E0= -.68710893E+02  d E =-.196011E-02
 curvature:  -0.85 expect dE=-0.365E-02 dE for cont linesearch -0.294E-05
 trial: gam= 1.34684 g(F)=  0.350E-02 g(S)=  0.817E-03 ort =-0.173E-03 (trialstep = 0.211E+00)
 search vector abs. value=  0.195E-01
 bond charge predicted
       N       E                     dE             d eps       ncg     rms          rms(c)
DAV:   1    -0.687596150058E+02   -0.14316E-02   -0.73430E-02   464   0.187E+00    0.122E-01
DAV:   2    -0.687591199781E+02    0.49503E-03   -0.20666E-03   424   0.250E-01    0.747E-02
DAV:   3    -0.687589741493E+02    0.14583E-03   -0.21048E-04   280   0.925E-02    0.424E-02
DAV:   4    -0.687589321731E+02    0.41976E-04   -0.14650E-04   344   0.787E-02
  33 F= -.68758932E+02 E0= -.68711660E+02  d E =-.739304E-03
 trial-energy change:   -0.000739  1 .order   -0.000728   -0.000860   -0.000595
 step:   0.6843(harm=  0.6843)  dis= 0.00549  next Energy=   -68.759589 (dE=-0.140E-02)
 bond charge predicted
       N       E                     dE             d eps       ncg     rms          rms(c)
DAV:   1    -0.687629984671E+02   -0.40243E-02   -0.37032E-01   448   0.420E+00    0.275E-01
DAV:   2    -0.687605260175E+02    0.24724E-02   -0.10129E-02   424   0.557E-01    0.167E-01
DAV:   3    -0.687598204406E+02    0.70558E-03   -0.11032E-03   416   0.206E-01    0.951E-02
DAV:   4    -0.687595676421E+02    0.25280E-03   -0.63532E-04   456   0.158E-01    0.213E-02
DAV:   5    -0.687595761571E+02   -0.85150E-05   -0.49434E-05   304   0.496E-02
  34 F= -.68759576E+02 E0= -.68712565E+02  d E =-.138329E-02
 curvature:  -1.63 expect dE=-0.452E-02 dE for cont linesearch -0.971E-06
 trial: gam= 0.31226 g(F)=  0.176E-02 g(S)=  0.101E-02 ort = 0.108E-03 (trialstep = 0.305E+00)
 search vector abs. value=  0.473E-02
 bond charge predicted
       N       E                     dE             d eps       ncg     rms          rms(c)
DAV:   1    -0.687606572592E+02   -0.10896E-02   -0.39417E-02   496   0.139E+00    0.982E-02
DAV:   2    -0.687604124950E+02    0.24476E-03   -0.11260E-03   424   0.198E-01    0.534E-02
DAV:   3    -0.687603443171E+02    0.68178E-04   -0.12067E-04   272   0.734E-02
  35 F= -.68760344E+02 E0= -.68713114E+02  d E =-.768160E-03
 ZBRENT: can't locate minimum, use default step
 trial-energy change:   -0.000768  1 .order   -0.000776   -0.000855   -0.000697
 step:   1.2219(harm=  1.6552)  dis= 0.00688  next Energy=   -68.761893 (dE=-0.232E-02)
 bond charge predicted
       N       E                     dE             d eps       ncg     rms          rms(c)
DAV:   1    -0.687636943735E+02   -0.32819E-02   -0.35021E-01   480   0.411E+00    0.297E-01
DAV:   2    -0.687614453941E+02    0.22490E-02   -0.98772E-03   416   0.581E-01    0.161E-01
DAV:   3    -0.687608238798E+02    0.62151E-03   -0.11192E-03   384   0.215E-01    0.942E-02
DAV:   4    -0.687606452992E+02    0.17858E-03   -0.53713E-04   448   0.167E-01    0.177E-02
DAV:   5    -0.687606531976E+02   -0.78983E-05   -0.44604E-05   344   0.501E-02
  36 F= -.68760653E+02 E0= -.68712815E+02  d E =-.107704E-02
 curvature:  -1.26 expect dE=-0.877E-02 dE for cont linesearch -0.435E-03
 trial: gam= 0.00000 g(F)=  0.457E-02 g(S)=  0.242E-02 ort =-0.128E-02 (trialstep = 0.331E+00)
 search vector abs. value=  0.699E-02
 bond charge predicted
       N       E                     dE             d eps       ncg     rms          rms(c)
DAV:   1    -0.687618688315E+02   -0.12235E-02   -0.76967E-02   400   0.209E+00    0.105E-01
DAV:   2    -0.687618205057E+02    0.48326E-04   -0.19521E-03   472   0.316E-01    0.638E-02
DAV:   3    -0.687617565632E+02    0.63943E-04   -0.16731E-04   336   0.110E-01
  37 F= -.68761757E+02 E0= -.68714288E+02  d E =-.110337E-02
 trial-energy change:   -0.001103  1 .order   -0.001115   -0.002314    0.000084
 step:   0.3195(harm=  0.3195)  dis= 0.00297  next Energy=   -68.761770 (dE=-0.112E-02)
 bond charge predicted
       N       E                     dE             d eps       ncg     rms          rms(c)
DAV:   1    -0.687617559292E+02    0.64577E-04   -0.19098E-04   352   0.102E-01    0.826E-03
DAV:   2    -0.687617615195E+02   -0.55903E-05   -0.19776E-05   312   0.360E-02
  38 F= -.68761762E+02 E0= -.68714296E+02  d E =-.110832E-02
 curvature:  -0.16 expect dE=-0.124E-03 dE for cont linesearch -0.593E-07
 trial: gam= 0.11793 g(F)=  0.606E-03 g(S)=  0.167E-03 ort =-0.509E-04 (trialstep = 0.329E+00)
 search vector abs. value=  0.858E-03
 reached required accuracy - stopping structural energy minimisation
 writing wavefunctions
Sun Mar  6 20:33:20 CST 2022
