Sun Mar  6 19:51:01 CST 2022
 running on   48 total cores
 distrk:  each k-point on   48 cores,    1 groups
 distr:  one band on   24 cores,    2 groups
 using from now: INCAR     
 vasp.5.3.5 31Mar14 (build Jan 11 2016 19:50:55) complex                        
  
 POSCAR found type information on POSCAR  B  C  Na
 POSCAR found :  3 types and       9 ions
 scaLAPACK will be used

 ----------------------------------------------------------------------------- 
|                                                                             |
|           W    W    AA    RRRRR   N    N  II  N    N   GGGG   !!!           |
|           W    W   A  A   R    R  NN   N  II  NN   N  G    G  !!!           |
|           W    W  A    A  R    R  N N  N  II  N N  N  G       !!!           |
|           W WW W  AAAAAA  RRRRR   N  N N  II  N  N N  G  GGG   !            |
|           WW  WW  A    A  R   R   N   NN  II  N   NN  G    G                |
|           W    W  A    A  R    R  N    N  II  N    N   GGGG   !!!           |
|                                                                             |
|      For optimal performance we recommend to set                            |
|        NCORE= 4 - approx SQRT( number of cores)                             |
|      NCORE specifies how many cores store one orbital (NPAR=cpu/NCORE).     |
|      This setting can  greatly improve the performance of VASP for DFT.     |
|      The default, NPAR=number of cores might be grossly inefficient         |
|      on modern multi-core architectures or massively parallel machines.     |
|      Do your own testing !!!!                                               |
|      Unfortunately you need to use the default for GW and RPA calculations. |
|      (for HF NCORE is supported but not extensively tested yet)             |
|                                                                             |
 ----------------------------------------------------------------------------- 

 LDA part: xc-table for Pade appr. of Perdew
 POSCAR, INCAR and KPOINTS ok, starting setup
 WARNING: small aliasing (wrap around) errors must be expected
 FFT: planning ...
 WAVECAR not read
 entering main loop
       N       E                     dE             d eps       ncg     rms          rms(c)
DAV:   1     0.266048946298E+03    0.26605E+03   -0.11708E+04   480   0.828E+02
DAV:   2    -0.738165364825E+00   -0.26679E+03   -0.25752E+03   560   0.223E+02
DAV:   3    -0.646994657411E+02   -0.63961E+02   -0.63679E+02   472   0.108E+02
DAV:   4    -0.681940032321E+02   -0.34945E+01   -0.34689E+01   528   0.340E+01
DAV:   5    -0.683018602919E+02   -0.10786E+00   -0.10762E+00   536   0.534E+00    0.133E+01
DAV:   6    -0.615727273003E+02    0.67291E+01   -0.16248E+01   448   0.276E+01    0.688E+00
DAV:   7    -0.599565487228E+02    0.16162E+01   -0.51643E+00   496   0.119E+01    0.346E+00
DAV:   8    -0.595743816371E+02    0.38217E+00   -0.10860E+00   568   0.514E+00    0.146E+00
DAV:   9    -0.594464007944E+02    0.12798E+00   -0.16451E-01   560   0.209E+00    0.529E-01
DAV:  10    -0.594070616452E+02    0.39339E-01   -0.41864E-02   488   0.100E+00    0.280E-01
DAV:  11    -0.593885858472E+02    0.18476E-01   -0.16884E-02   528   0.626E-01    0.181E-01
DAV:  12    -0.593872311859E+02    0.13547E-02   -0.63063E-03   488   0.394E-01    0.993E-02
DAV:  13    -0.593886568240E+02   -0.14256E-02   -0.23516E-03   480   0.193E-01    0.606E-02
DAV:  14    -0.593918536728E+02   -0.31968E-02   -0.12848E-03   400   0.156E-01    0.429E-02
DAV:  15    -0.593934658061E+02   -0.16121E-02   -0.49287E-04   336   0.668E-02    0.293E-02
DAV:  16    -0.593963229670E+02   -0.28572E-02   -0.17695E-03   384   0.918E-02    0.163E-02
DAV:  17    -0.593973145517E+02   -0.99158E-03   -0.40204E-04   320   0.492E-02    0.124E-02
DAV:  18    -0.593976869083E+02   -0.37236E-03   -0.11916E-04   320   0.347E-02    0.738E-03
DAV:  19    -0.593979282995E+02   -0.24139E-03   -0.94331E-05   320   0.288E-02    0.305E-03
DAV:  20    -0.593979716488E+02   -0.43349E-04   -0.85278E-06   336   0.143E-02
   1 F= -.59397972E+02 E0= -.59375750E+02  d E =-.593980E+02
 curvature:   0.00 expect dE= 0.000E+00 dE for cont linesearch  0.000E+00
 trial: gam= 0.00000 g(F)=  0.101E+01 g(S)=  0.289E+00 ort = 0.000E+00 (trialstep = 0.100E+01)
 search vector abs. value=  0.130E+01
 bond charge predicted
       N       E                     dE             d eps       ncg     rms          rms(c)
DAV:   1    -0.590062229017E+02    0.39171E+00   -0.18193E+02   416   0.108E+02    0.362E+00
DAV:   2    -0.592992185564E+02   -0.29300E+00   -0.58882E+00   512   0.161E+01    0.227E+00
DAV:   3    -0.592027567114E+02    0.96462E-01   -0.33080E-01   576   0.373E+00    0.130E+00
DAV:   4    -0.591751182289E+02    0.27638E-01   -0.67792E-02   512   0.185E+00    0.369E-01
DAV:   5    -0.591734603930E+02    0.16578E-02   -0.11146E-02   528   0.608E-01    0.115E-01
DAV:   6    -0.591732339652E+02    0.22643E-03   -0.11719E-03   528   0.228E-01    0.569E-02
DAV:   7    -0.591732831864E+02   -0.49221E-04   -0.29176E-04   464   0.107E-01
   2 F= -.59173283E+02 E0= -.59150739E+02  d E =0.224688E+00
 trial-energy change:    0.224688  1 .order    0.153190   -1.302510    1.608891
 step:   0.4117(harm=  0.4474)  dis= 0.05789  next Energy=   -59.661101 (dE=-0.263E+00)
 bond charge predicted
       N       E                     dE             d eps       ncg     rms          rms(c)
DAV:   1    -0.596789347934E+02   -0.50570E+00   -0.54566E+01   384   0.489E+01    0.224E+00
DAV:   2    -0.597038526985E+02   -0.24918E-01   -0.14722E+00   544   0.800E+00    0.131E+00
DAV:   3    -0.596654121847E+02    0.38441E-01   -0.15836E-01   528   0.281E+00    0.471E-01
DAV:   4    -0.596627021278E+02    0.27101E-02   -0.23863E-02   496   0.936E-01    0.202E-01
DAV:   5    -0.596623824675E+02    0.31966E-03   -0.32370E-03   528   0.350E-01    0.807E-02
DAV:   6    -0.596623978768E+02   -0.15409E-04   -0.33064E-04   512   0.119E-01
   3 F= -.59662398E+02 E0= -.59642575E+02  d E =-.264426E+00
 curvature:  -0.22 expect dE=-0.204E+00 dE for cont linesearch -0.108E-03
 trial: gam= 0.72149 g(F)=  0.869E+00 g(S)=  0.456E-01 ort =-0.251E-01 (trialstep = 0.738E+00)
 search vector abs. value=  0.156E+01
 bond charge predicted
       N       E                     dE             d eps       ncg     rms          rms(c)
DAV:   1    -0.597849611474E+02   -0.12258E+00   -0.13117E+02   496   0.830E+01    0.263E+00
DAV:   2    -0.598407002886E+02   -0.55739E-01   -0.25049E+00   512   0.115E+01    0.150E+00
DAV:   3    -0.597771449434E+02    0.63555E-01   -0.26929E-01   512   0.313E+00    0.521E-01
DAV:   4    -0.597713176089E+02    0.58273E-02   -0.25893E-02   512   0.966E-01    0.241E-01
DAV:   5    -0.597702219790E+02    0.10956E-02   -0.53872E-03   464   0.395E-01    0.986E-02
DAV:   6    -0.597699759786E+02    0.24600E-03   -0.56964E-04   496   0.140E-01    0.427E-02
DAV:   7    -0.597700584005E+02   -0.82422E-04   -0.14835E-04   352   0.648E-02
   4 F= -.59770058E+02 E0= -.59737428E+02  d E =-.107661E+00
 trial-energy change:   -0.107661  1 .order   -0.134836   -0.661981    0.392308
 step:   0.4360(harm=  0.4636)  dis= 0.07741  next Energy=   -59.852251 (dE=-0.190E+00)
 bond charge predicted
       N       E                     dE             d eps       ncg     rms          rms(c)
DAV:   1    -0.598554707003E+02   -0.85495E-01   -0.18983E+01   384   0.272E+01    0.113E+00
DAV:   2    -0.598637849898E+02   -0.83143E-02   -0.44621E-01   544   0.436E+00    0.643E-01
DAV:   3    -0.598542755087E+02    0.95095E-02   -0.40049E-02   544   0.134E+00    0.263E-01
DAV:   4    -0.598535424400E+02    0.73307E-03   -0.39682E-03   496   0.381E-01    0.119E-01
DAV:   5    -0.598534727630E+02    0.69677E-04   -0.60050E-04   512   0.140E-01
   5 F= -.59853473E+02 E0= -.59825977E+02  d E =-.191075E+00
 curvature:  -0.40 expect dE=-0.660E-01 dE for cont linesearch -0.229E-04
 trial: gam= 0.23037 g(F)=  0.948E-01 g(S)=  0.709E-01 ort =-0.945E-02 (trialstep = 0.678E+00)
 search vector abs. value=  0.244E+00
 bond charge predicted
       N       E                     dE             d eps       ncg     rms          rms(c)
DAV:   1    -0.598873312325E+02   -0.33789E-01   -0.13790E+01   384   0.239E+01    0.105E+00
DAV:   2    -0.598894849575E+02   -0.21537E-02   -0.33611E-01   576   0.390E+00    0.615E-01
DAV:   3    -0.598827431870E+02    0.67418E-02   -0.29398E-02   528   0.114E+00    0.265E-01
DAV:   4    -0.598819268634E+02    0.81632E-03   -0.51653E-03   512   0.457E-01    0.109E-01
DAV:   5    -0.598817868620E+02    0.14000E-03   -0.85678E-04   480   0.183E-01    0.402E-02
DAV:   6    -0.598817907815E+02   -0.39195E-05   -0.12386E-04   336   0.712E-02
   6 F= -.59881791E+02 E0= -.59850142E+02  d E =-.283180E-01
 trial-energy change:   -0.028318  1 .order   -0.028061   -0.110898    0.054776
 step:   0.4538(harm=  0.4538)  dis= 0.02942  next Energy=   -59.890589 (dE=-0.371E-01)
 bond charge predicted
       N       E                     dE             d eps       ncg     rms          rms(c)
DAV:   1    -0.598916115932E+02   -0.98247E-02   -0.15003E+00   384   0.787E+00    0.342E-01
DAV:   2    -0.598916598222E+02   -0.48229E-04   -0.36277E-02   576   0.123E+00    0.207E-01
DAV:   3    -0.598909850864E+02    0.67474E-03   -0.30262E-03   544   0.360E-01    0.944E-02
DAV:   4    -0.598909120161E+02    0.73070E-04   -0.54133E-04   480   0.157E-01
   7 F= -.59890912E+02 E0= -.59860902E+02  d E =-.374393E-01
 curvature:  -0.34 expect dE=-0.273E-01 dE for cont linesearch -0.126E-05
 trial: gam= 0.51944 g(F)=  0.716E-01 g(S)=  0.888E-02 ort = 0.952E-03 (trialstep = 0.633E+00)
 search vector abs. value=  0.147E+00
 bond charge predicted
       N       E                     dE             d eps       ncg     rms          rms(c)
DAV:   1    -0.598823467431E+02    0.86383E-02   -0.80740E+00   384   0.191E+01    0.706E-01
DAV:   2    -0.598883020421E+02   -0.59553E-02   -0.21951E-01   512   0.310E+00    0.435E-01
DAV:   3    -0.598850976149E+02    0.32044E-02   -0.17853E-02   528   0.879E-01    0.256E-01
DAV:   4    -0.598848799541E+02    0.21766E-03   -0.18771E-03   512   0.282E-01    0.119E-01
DAV:   5    -0.598848315332E+02    0.48421E-04   -0.45428E-04   512   0.141E-01
   8 F= -.59884832E+02 E0= -.59852148E+02  d E =0.608048E-02
 trial-energy change:    0.006080  1 .order    0.005954   -0.051294    0.063202
 step:   0.2836(harm=  0.2836)  dis= 0.01326  next Energy=   -59.902402 (dE=-0.115E-01)
 bond charge predicted
       N       E                     dE             d eps       ncg     rms          rms(c)
DAV:   1    -0.599014526429E+02   -0.16573E-01   -0.24527E+00   384   0.105E+01    0.375E-01
DAV:   2    -0.599033892687E+02   -0.19366E-02   -0.67784E-02   496   0.170E+00    0.240E-01
DAV:   3    -0.599023652818E+02    0.10240E-02   -0.65063E-03   480   0.517E-01    0.123E-01
DAV:   4    -0.599023320034E+02    0.33278E-04   -0.67815E-04   512   0.175E-01
   9 F= -.59902332E+02 E0= -.59871171E+02  d E =-.114200E-01
 curvature:  -0.26 expect dE=-0.902E-02 dE for cont linesearch -0.244E-05
 trial: gam= 0.48177 g(F)=  0.282E-01 g(S)=  0.679E-02 ort =-0.118E-02 (trialstep = 0.563E+00)
 search vector abs. value=  0.680E-01
 bond charge predicted
       N       E                     dE             d eps       ncg     rms          rms(c)
DAV:   1    -0.599153314419E+02   -0.12966E-01   -0.25920E+00   384   0.101E+01    0.417E-01
DAV:   2    -0.599143104720E+02    0.10210E-02   -0.63456E-02   496   0.150E+00    0.261E-01
DAV:   3    -0.599131137336E+02    0.11967E-02   -0.42974E-03   464   0.418E-01    0.152E-01
DAV:   4    -0.599128187852E+02    0.29495E-03   -0.12394E-03   512   0.209E-01    0.623E-02
DAV:   5    -0.599128032075E+02    0.15578E-04   -0.16907E-04   376   0.824E-02
  10 F= -.59912803E+02 E0= -.59880243E+02  d E =-.104712E-01
 trial-energy change:   -0.010471  1 .order   -0.010535   -0.019384   -0.001687
 step:   0.6169(harm=  0.6169)  dis= 0.01958  next Energy=   -59.912948 (dE=-0.106E-01)
 bond charge predicted
       N       E                     dE             d eps       ncg     rms          rms(c)
DAV:   1    -0.599129248777E+02   -0.10609E-03   -0.23666E-02   384   0.963E-01    0.383E-02
DAV:   2    -0.599129068507E+02    0.18027E-04   -0.53996E-04   448   0.142E-01
  11 F= -.59912907E+02 E0= -.59880409E+02  d E =-.105748E-01
 curvature:  -0.61 expect dE=-0.160E-01 dE for cont linesearch -0.590E-06
 trial: gam= 0.76077 g(F)=  0.150E-01 g(S)=  0.113E-01 ort =-0.257E-03 (trialstep = 0.574E+00)
 search vector abs. value=  0.653E-01
 bond charge predicted
       N       E                     dE             d eps       ncg     rms          rms(c)
DAV:   1    -0.599395527054E+02   -0.26628E-01   -0.23672E+00   384   0.964E+00    0.652E-01
DAV:   2    -0.599294681957E+02    0.10085E-01   -0.86934E-02   480   0.159E+00    0.387E-01
DAV:   3    -0.599259919911E+02    0.34762E-02   -0.77650E-03   512   0.542E-01    0.203E-01
DAV:   4    -0.599251058193E+02    0.88617E-03   -0.35361E-03   480   0.424E-01    0.529E-02
DAV:   5    -0.599251035301E+02    0.22892E-05   -0.42136E-04   496   0.144E-01
  12 F= -.59925104E+02 E0= -.59892657E+02  d E =-.121967E-01
 trial-energy change:   -0.012197  1 .order   -0.012303   -0.014980   -0.009626
 step:   1.6060(harm=  1.6060)  dis= 0.04371  next Energy=   -59.933865 (dE=-0.210E-01)
 bond charge predicted
       N       E                     dE             d eps       ncg     rms          rms(c)
DAV:   1    -0.599821897544E+02   -0.57084E-01   -0.76558E+00   384   0.173E+01    0.119E+00
DAV:   2    -0.599507830978E+02    0.31407E-01   -0.30964E-01   480   0.295E+00    0.715E-01
DAV:   3    -0.599376929416E+02    0.13090E-01   -0.26316E-02   480   0.101E+00    0.373E-01
DAV:   4    -0.599346953227E+02    0.29976E-02   -0.12395E-02   544   0.791E-01    0.114E-01
DAV:   5    -0.599345921972E+02    0.10313E-03   -0.22839E-03   528   0.301E-01    0.475E-02
DAV:   6    -0.599346497072E+02   -0.57510E-04   -0.23434E-04   384   0.867E-02
  13 F= -.59934650E+02 E0= -.59902023E+02  d E =-.217429E-01
 curvature:  -2.01 expect dE=-0.209E+00 dE for cont linesearch -0.152E-03
 trial: gam= 3.84022 g(F)=  0.948E-01 g(S)=  0.897E-02 ort = 0.222E-02 (trialstep = 0.470E-01)
 search vector abs. value=  0.108E+01
 bond charge predicted
       N       E                     dE             d eps       ncg     rms          rms(c)
DAV:   1    -0.599417828626E+02   -0.71907E-02   -0.25974E-01   384   0.326E+00    0.233E-01
DAV:   2    -0.599402659950E+02    0.15169E-02   -0.99363E-03   480   0.542E-01    0.133E-01
DAV:   3    -0.599398425037E+02    0.42349E-03   -0.93840E-04   456   0.181E-01    0.686E-02
DAV:   4    -0.599397779869E+02    0.64517E-04   -0.45737E-04   448   0.143E-01
  14 F= -.59939778E+02 E0= -.59907210E+02  d E =-.512828E-02
 ZBRENT: can't locate minimum, use default step
 trial-energy change:   -0.005128  1 .order   -0.004890   -0.005281   -0.004499
 step:   0.1881(harm=  0.3175)  dis= 0.01908  next Energy=   -59.952484 (dE=-0.178E-01)
 bond charge predicted
       N       E                     dE             d eps       ncg     rms          rms(c)
DAV:   1    -0.599707820755E+02   -0.30940E-01   -0.23418E+00   384   0.974E+00    0.720E-01
DAV:   2    -0.599568411900E+02    0.13941E-01   -0.99847E-02   496   0.166E+00    0.421E-01
DAV:   3    -0.599523918797E+02    0.44493E-02   -0.91881E-03   464   0.571E-01    0.215E-01
DAV:   4    -0.599512616954E+02    0.11302E-02   -0.41656E-03   496   0.446E-01    0.582E-02
DAV:   5    -0.599512874500E+02   -0.25755E-04   -0.54036E-04   512   0.157E-01
  15 F= -.59951287E+02 E0= -.59919029E+02  d E =-.166377E-01
 curvature:  -1.18 expect dE=-0.489E-01 dE for cont linesearch -0.447E-02
 ZBRENT: increasing intervall
 opt :   0.4701  next Energy=   -59.960438 (dE=-0.258E-01)
 bond charge predicted
       N       E                     dE             d eps       ncg     rms          rms(c)
DAV:   1    -0.600410474645E+02   -0.89786E-01   -0.93763E+00   384   0.193E+01    0.148E+00
DAV:   2    -0.599850129386E+02    0.56035E-01   -0.47147E-01   496   0.345E+00    0.862E-01
DAV:   3    -0.599646514597E+02    0.20361E-01   -0.38433E-02   464   0.121E+00    0.445E-01
DAV:   4    -0.599597627756E+02    0.48887E-02   -0.17797E-02   496   0.914E-01    0.142E-01
DAV:   5    -0.599595413613E+02    0.22141E-03   -0.35723E-03   496   0.355E-01    0.593E-02
DAV:   6    -0.599595695363E+02   -0.28175E-04   -0.38531E-04   384   0.107E-01
  16 F= -.59959570E+02 E0= -.59927119E+02  d E =-.249198E-01
 curvature:  -2.42 expect dE=-0.282E+00 dE for cont linesearch -0.171E-04
 trial: gam= 1.39222 g(F)=  0.106E+00 g(S)=  0.102E-01 ort =-0.277E-02 (trialstep = 0.646E-01)
 search vector abs. value=  0.221E+01
 bond charge predicted
       N       E                     dE             d eps       ncg     rms          rms(c)
DAV:   1    -0.599755897832E+02   -0.16048E-01   -0.95683E-01   384   0.625E+00    0.485E-01
DAV:   2    -0.599687086867E+02    0.68811E-02   -0.41420E-02   480   0.105E+00    0.277E-01
DAV:   3    -0.599668033417E+02    0.19053E-02   -0.40032E-03   448   0.367E-01    0.141E-01
DAV:   4    -0.599663340461E+02    0.46930E-03   -0.17706E-03   480   0.278E-01    0.400E-02
DAV:   5    -0.599664126878E+02   -0.78642E-04   -0.19678E-04   336   0.102E-01
  17 F= -.59966413E+02 E0= -.59934278E+02  d E =-.684315E-02
 ZBRENT: can't locate minimum, use default step
 trial-energy change:   -0.006843  1 .order   -0.006772   -0.007279   -0.006265
 step:   0.2583(harm=  0.4637)  dis= 0.03463  next Energy=   -59.985706 (dE=-0.261E-01)
 bond charge predicted
       N       E                     dE             d eps       ncg     rms          rms(c)
DAV:   1    -0.600683147650E+02   -0.10198E+00   -0.86191E+00   384   0.186E+01    0.151E+00
DAV:   2    -0.600072193194E+02    0.61095E-01   -0.46498E-01   480   0.326E+00    0.875E-01
DAV:   3    -0.599868418522E+02    0.20377E-01   -0.38515E-02   432   0.118E+00    0.451E-01
DAV:   4    -0.599817708811E+02    0.50710E-02   -0.17716E-02   528   0.880E-01    0.149E-01
DAV:   5    -0.599815390012E+02    0.23188E-03   -0.39320E-03   512   0.363E-01    0.650E-02
DAV:   6    -0.599815394156E+02   -0.41431E-06   -0.45659E-04   416   0.113E-01
  18 F= -.59981539E+02 E0= -.59949864E+02  d E =-.219699E-01
 curvature:  -3.34 expect dE=-0.289E+00 dE for cont linesearch -0.703E-02
 ZBRENT: increasing intervall
 opt :   0.6457  next Energy=   -59.996765 (dE=-0.372E-01)
 bond charge predicted
       N       E                     dE             d eps       ncg     rms          rms(c)
DAV:   1    -0.603584897597E+02   -0.37695E+00   -0.34871E+01   384   0.370E+01    0.312E+00
DAV:   2    -0.600976022750E+02    0.26089E+00   -0.25193E+00   512   0.705E+00    0.173E+00
DAV:   3    -0.600186147369E+02    0.78988E-01   -0.15295E-01   448   0.251E+00    0.932E-01
DAV:   4    -0.599973978847E+02    0.21217E-01   -0.75627E-02   560   0.172E+00    0.364E-01
DAV:   5    -0.599950607171E+02    0.23372E-02   -0.25270E-02   496   0.753E-01    0.158E-01
DAV:   6    -0.599944849347E+02    0.57578E-03   -0.27812E-03   512   0.273E-01    0.578E-02
DAV:   7    -0.599947235307E+02   -0.23860E-03   -0.37530E-04   416   0.104E-01    0.293E-02
DAV:   8    -0.599952109117E+02   -0.48738E-03   -0.21369E-04   384   0.754E-02    0.145E-02
DAV:   9    -0.599955805900E+02   -0.36968E-03   -0.11411E-04   360   0.506E-02    0.104E-02
DAV:  10    -0.599959013694E+02   -0.32078E-03   -0.13129E-04   384   0.416E-02    0.656E-03
DAV:  11    -0.599960519822E+02   -0.15061E-03   -0.44867E-05   368   0.276E-02    0.388E-03
DAV:  12    -0.599961039938E+02   -0.52012E-04   -0.12008E-05   304   0.143E-02
  19 F= -.59996104E+02 E0= -.59965599E+02  d E =-.365345E-01
 curvature:  -7.24 expect dE=-0.124E+01 dE for cont linesearch -0.275E-04
 trial: gam= 1.17417 g(F)=  0.158E+00 g(S)=  0.138E-01 ort = 0.289E-02 (trialstep = 0.124E+00)
 search vector abs. value=  0.322E+01
 bond charge predicted
       N       E                     dE             d eps       ncg     rms          rms(c)
DAV:   1    -0.600668630398E+02   -0.70811E-01   -0.50111E+00   384   0.145E+01    0.117E+00
DAV:   2    -0.600290366062E+02    0.37826E-01   -0.24020E-01   480   0.243E+00    0.662E-01
DAV:   3    -0.600182037143E+02    0.10833E-01   -0.23116E-02   416   0.892E-01    0.337E-01
DAV:   4    -0.600153063134E+02    0.28974E-02   -0.98010E-03   496   0.644E-01    0.111E-01
DAV:   5    -0.600151757622E+02    0.13055E-03   -0.18639E-03   512   0.269E-01    0.452E-02
DAV:   6    -0.600151844834E+02   -0.87212E-05   -0.19840E-04   352   0.864E-02
  20 F= -.60015184E+02 E0= -.59985198E+02  d E =-.190805E-01
 ZBRENT: can't locate minimum, use default step
 trial-energy change:   -0.019080  1 .order   -0.019726   -0.021711   -0.017742
 step:   0.4955(harm=  0.6776)  dis= 0.07163  next Energy=   -60.055488 (dE=-0.594E-01)
 bond charge predicted
       N       E                     dE             d eps       ncg     rms          rms(c)
DAV:   1    -0.605390733567E+02   -0.52390E+00   -0.45394E+01   384   0.430E+01    0.366E+00
DAV:   2    -0.601785060209E+02    0.36057E+00   -0.30173E+00   512   0.797E+00    0.200E+00
DAV:   3    -0.600765415623E+02    0.10196E+00   -0.20765E-01   448   0.293E+00    0.107E+00
DAV:   4    -0.600493933950E+02    0.27148E-01   -0.85465E-02   544   0.188E+00    0.408E-01
DAV:   5    -0.600474912692E+02    0.19021E-02   -0.30342E-02   512   0.860E-01    0.197E-01
DAV:   6    -0.600463162017E+02    0.11751E-02   -0.43042E-03   496   0.309E-01    0.644E-02
DAV:   7    -0.600466979071E+02   -0.38171E-03   -0.58443E-04   496   0.128E-01    0.295E-02
DAV:   8    -0.600471845492E+02   -0.48664E-03   -0.15538E-04   368   0.617E-02    0.160E-02
DAV:   9    -0.600476764286E+02   -0.49188E-03   -0.23942E-04   416   0.623E-02    0.113E-02
DAV:  10    -0.600479832474E+02   -0.30682E-03   -0.11651E-04   368   0.404E-02    0.589E-03
DAV:  11    -0.600480981629E+02   -0.11492E-03   -0.47428E-05   384   0.240E-02    0.394E-03
DAV:  12    -0.600481488592E+02   -0.50696E-04   -0.13531E-05   336   0.164E-02
  21 F= -.60048149E+02 E0= -.60019618E+02  d E =-.520449E-01
 curvature:  -5.56 expect dE=-0.494E+00 dE for cont linesearch -0.177E-02
 ZBRENT: extrapolating
 opt :   0.6027  next Energy=   -60.049869 (dE=-0.538E-01)
 bond charge predicted
       N       E                     dE             d eps       ncg     rms          rms(c)
DAV:   1    -0.600922746489E+02   -0.44176E-01   -0.38779E+00   384   0.128E+01    0.105E+00
DAV:   2    -0.600605259725E+02    0.31749E-01   -0.18043E-01   480   0.214E+00    0.578E-01
DAV:   3    -0.600524865805E+02    0.80394E-02   -0.18108E-02   432   0.793E-01    0.292E-01
DAV:   4    -0.600502995118E+02    0.21871E-02   -0.66570E-03   512   0.532E-01    0.965E-02
DAV:   5    -0.600501984609E+02    0.10105E-03   -0.12120E-03   480   0.215E-01    0.356E-02
DAV:   6    -0.600502206912E+02   -0.22230E-04   -0.12519E-04   360   0.710E-02
  22 F= -.60050221E+02 E0= -.60022178E+02  d E =-.541167E-01
 curvature:  -5.39 expect dE=-0.761E+00 dE for cont linesearch -0.691E-04
 trial: gam= 1.03787 g(F)=  0.129E+00 g(S)=  0.120E-01 ort = 0.643E-02 (trialstep = 0.195E+00)
 search vector abs. value=  0.363E+01
 bond charge predicted
       N       E                     dE             d eps       ncg     rms          rms(c)
DAV:   1    -0.602387312684E+02   -0.18853E+00   -0.13423E+01   384   0.238E+01    0.208E+00
DAV:   2    -0.601124787543E+02    0.12625E+00   -0.76214E-01   504   0.410E+00    0.112E+00
DAV:   3    -0.600801876653E+02    0.32291E-01   -0.68445E-02   472   0.159E+00    0.575E-01
DAV:   4    -0.600716976131E+02    0.84901E-02   -0.22988E-02   504   0.992E-01    0.196E-01
DAV:   5    -0.600712622125E+02    0.43540E-03   -0.50911E-03   496   0.412E-01    0.768E-02
DAV:   6    -0.600712786355E+02   -0.16423E-04   -0.65453E-04   496   0.137E-01
  23 F= -.60071279E+02 E0= -.60043966E+02  d E =-.210579E-01
 trial-energy change:   -0.021058  1 .order   -0.022897   -0.028872   -0.016921
 step:   0.4716(harm=  0.4716)  dis= 0.06239  next Energy=   -60.085097 (dE=-0.349E-01)
 bond charge predicted
       N       E                     dE             d eps       ncg     rms          rms(c)
DAV:   1    -0.604346586060E+02   -0.36340E+00   -0.27347E+01   384   0.338E+01    0.304E+00
DAV:   2    -0.601640639540E+02    0.27059E+00   -0.17742E+00   512   0.598E+00    0.159E+00
DAV:   3    -0.600993154145E+02    0.64749E-01   -0.14197E-01   480   0.234E+00    0.831E-01
DAV:   4    -0.600819223327E+02    0.17393E-01   -0.46542E-02   528   0.141E+00    0.294E-01
DAV:   5    -0.600806783547E+02    0.12440E-02   -0.11067E-02   496   0.580E-01    0.116E-01
DAV:   6    -0.600806001151E+02    0.78240E-04   -0.13644E-03   496   0.198E-01    0.456E-02
DAV:   7    -0.600810276816E+02   -0.42757E-03   -0.36691E-04   416   0.994E-02    0.214E-02
DAV:   8    -0.600814019273E+02   -0.37425E-03   -0.11816E-04   384   0.549E-02    0.131E-02
DAV:   9    -0.600818065742E+02   -0.40465E-03   -0.20210E-04   400   0.536E-02    0.903E-03
DAV:  10    -0.600820340659E+02   -0.22749E-03   -0.11027E-04   384   0.376E-02    0.516E-03
DAV:  11    -0.600820832785E+02   -0.49213E-04   -0.24824E-05   384   0.194E-02
  24 F= -.60082083E+02 E0= -.60055784E+02  d E =-.318626E-01
 curvature:  -5.78 expect dE=-0.129E+01 dE for cont linesearch -0.464E-03
 trial: gam= 1.78705 g(F)=  0.208E+00 g(S)=  0.147E-01 ort =-0.171E-01 (trialstep = 0.774E-01)
 search vector abs. value=  0.117E+02
 bond charge predicted
       N       E                     dE             d eps       ncg     rms          rms(c)
DAV:   1    -0.601834550759E+02   -0.10142E+00   -0.64993E+00   384   0.167E+01    0.150E+00
DAV:   2    -0.601147978948E+02    0.68657E-01   -0.34746E-01   488   0.285E+00    0.781E-01
DAV:   3    -0.601001951586E+02    0.14603E-01   -0.32586E-02   456   0.112E+00    0.391E-01
DAV:   4    -0.600961607336E+02    0.40344E-02   -0.10398E-02   512   0.659E-01    0.124E-01
DAV:   5    -0.600959463983E+02    0.21434E-03   -0.16634E-03   464   0.257E-01    0.434E-02
DAV:   6    -0.600960026011E+02   -0.56203E-04   -0.19233E-04   352   0.849E-02
  25 F= -.60096003E+02 E0= -.60070570E+02  d E =-.139193E-01
 ZBRENT: can't locate minimum, use default step
 trial-energy change:   -0.013919  1 .order   -0.014737   -0.014867   -0.014607
 step:   0.3094(harm=  4.4259)  dis= 0.06735  next Energy=   -60.507367 (dE=-0.425E+00)
 bond charge predicted
       N       E                     dE             d eps       ncg     rms          rms(c)
DAV:   1    -0.609737200566E+02   -0.87777E+00   -0.59393E+01   384   0.494E+01    0.470E+00
DAV:   2    -0.603013344470E+02    0.67239E+00   -0.43615E+00   512   0.912E+00    0.236E+00
DAV:   3    -0.601714991635E+02    0.12984E+00   -0.30498E-01   464   0.363E+00    0.121E+00
DAV:   4    -0.601365047131E+02    0.34994E-01   -0.84927E-02   528   0.192E+00    0.423E-01
DAV:   5    -0.601335161152E+02    0.29886E-02   -0.16381E-02   512   0.726E-01    0.149E-01
DAV:   6    -0.601335817802E+02   -0.65665E-04   -0.19835E-03   504   0.251E-01    0.631E-02
DAV:   7    -0.601342645685E+02   -0.68279E-03   -0.67769E-04   456   0.133E-01    0.281E-02
DAV:   8    -0.601347633946E+02   -0.49883E-03   -0.17610E-04   368   0.653E-02    0.167E-02
DAV:   9    -0.601353375904E+02   -0.57420E-03   -0.44178E-04   440   0.819E-02    0.127E-02
DAV:  10    -0.601355651825E+02   -0.22759E-03   -0.11818E-04   384   0.467E-02    0.594E-03
DAV:  11    -0.601356352326E+02   -0.70050E-04   -0.47155E-05   368   0.256E-02
  26 F= -.60135635E+02 E0= -.60113100E+02  d E =-.535520E-01
 curvature: -14.05 expect dE=-0.373E+01 dE for cont linesearch -0.214E-01
 ZBRENT: increasing intervall
 opt :   0.7736  next Energy=   -60.172192 (dE=-0.901E-01)
 bond charge predicted
       N       E                     dE             d eps       ncg     rms          rms(c)
DAV:   1    -0.636716646193E+02   -0.35361E+01   -0.25362E+02   384   0.103E+02    0.102E+01
DAV:   2    -0.607458903689E+02    0.29258E+01   -0.13496E+01   440   0.202E+01    0.478E+00
DAV:   3    -0.602781305727E+02    0.46776E+00   -0.15755E+00   488   0.835E+00    0.226E+00
DAV:   4    -0.602006875798E+02    0.77443E-01   -0.15732E-01   480   0.262E+00    0.905E-01
DAV:   5    -0.601913765542E+02    0.93110E-02   -0.24997E-02   472   0.922E-01    0.221E-01
DAV:   6    -0.601924453239E+02   -0.10688E-02   -0.44105E-03   568   0.400E-01    0.895E-02
DAV:   7    -0.601932131446E+02   -0.76782E-03   -0.10893E-03   504   0.169E-01    0.486E-02
DAV:   8    -0.601939711049E+02   -0.75796E-03   -0.70231E-04   448   0.117E-01    0.279E-02
DAV:   9    -0.601948015651E+02   -0.83046E-03   -0.10114E-03   448   0.121E-01    0.231E-02
DAV:  10    -0.601951745091E+02   -0.37294E-03   -0.42253E-04   448   0.763E-02    0.105E-02
DAV:  11    -0.601952387582E+02   -0.64249E-04   -0.50096E-05   384   0.320E-02
  27 F= -.60195239E+02 E0= -.60179730E+02  d E =-.113155E+00
 curvature: -23.99 expect dE=-0.170E+02 dE for cont linesearch -0.615E-02
 trial: gam= 2.46340 g(F)=  0.592E+00 g(S)=  0.115E+00 ort = 0.549E-01 (trialstep = 0.352E-01)
 search vector abs. value=  0.723E+02
 bond charge predicted
       N       E                     dE             d eps       ncg     rms          rms(c)
DAV:   1    -0.603296142929E+02   -0.13444E+00   -0.83190E+00   384   0.188E+01    0.165E+00
DAV:   2    -0.602433644537E+02    0.86250E-01   -0.35307E-01   456   0.314E+00    0.807E-01
DAV:   3    -0.602274339856E+02    0.15930E-01   -0.41113E-02   480   0.131E+00    0.354E-01
DAV:   4    -0.602244377168E+02    0.29963E-02   -0.62456E-03   512   0.529E-01    0.127E-01
DAV:   5    -0.602241692968E+02    0.26842E-03   -0.83930E-04   496   0.177E-01    0.355E-02
DAV:   6    -0.602242811582E+02   -0.11186E-03   -0.11404E-04   384   0.653E-02    0.157E-02
DAV:   7    -0.602244491757E+02   -0.16802E-03   -0.67999E-05   384   0.427E-02    0.842E-03
DAV:   8    -0.602246014874E+02   -0.15231E-03   -0.43716E-05   384   0.315E-02    0.515E-03
DAV:   9    -0.602247447416E+02   -0.14325E-03   -0.62558E-05   384   0.294E-02    0.407E-03
DAV:  10    -0.602247971832E+02   -0.52442E-04   -0.19332E-05   384   0.191E-02
  28 F= -.60224797E+02 E0= -.60211071E+02  d E =-.295584E-01
 ZBRENT: can't locate minimum, use default step
 trial-energy change:   -0.029558  1 .order   -0.029155   -0.029659   -0.028651
 step:   0.1408(harm=  1.0358)  dis= 0.07286  next Energy=   -60.631465 (dE=-0.436E+00)
 bond charge predicted
       N       E                     dE             d eps       ncg     rms          rms(c)
DAV:   1    -0.613330462236E+02   -0.11083E+01   -0.75933E+01   384   0.560E+01    0.529E+00
DAV:   2    -0.604837185475E+02    0.84933E+00   -0.44596E+00   512   0.108E+01    0.258E+00
DAV:   3    -0.603392972423E+02    0.14442E+00   -0.40560E-01   464   0.428E+00    0.124E+00
DAV:   4    -0.603090191512E+02    0.30278E-01   -0.70822E-02   496   0.184E+00    0.461E-01
DAV:   5    -0.603059030255E+02    0.31161E-02   -0.97468E-03   480   0.585E-01    0.127E-01
DAV:   6    -0.603063418730E+02   -0.43885E-03   -0.11882E-03   496   0.205E-01    0.546E-02
DAV:   7    -0.603071087349E+02   -0.76686E-03   -0.53758E-04   416   0.116E-01    0.265E-02
DAV:   8    -0.603077902985E+02   -0.68156E-03   -0.38982E-04   440   0.879E-02    0.168E-02
DAV:   9    -0.603082843331E+02   -0.49403E-03   -0.31023E-04   432   0.697E-02    0.129E-02
DAV:  10    -0.603084925130E+02   -0.20818E-03   -0.97659E-05   376   0.424E-02    0.619E-03
DAV:  11    -0.603085730857E+02   -0.80573E-04   -0.44653E-05   384   0.256E-02
  29 F= -.60308573E+02 E0= -.60300080E+02  d E =-.113334E+00
 curvature:  -8.89 expect dE=-0.362E+01 dE for cont linesearch -0.613E-01
 ZBRENT: increasing intervall
 opt :   0.3521  next Energy=   -60.435022 (dE=-0.240E+00)
 bond charge predicted
       N       E                     dE             d eps       ncg     rms          rms(c)
DAV:   1    -0.648309873644E+02   -0.45225E+01   -0.32911E+02   384   0.121E+02    0.121E+01
DAV:   2    -0.611238687576E+02    0.37071E+01   -0.19344E+01   464   0.240E+01    0.544E+00
DAV:   3    -0.605560127323E+02    0.56786E+00   -0.21970E+00   496   0.971E+00    0.270E+00
DAV:   4    -0.604643235471E+02    0.91689E-01   -0.20240E-01   496   0.299E+00    0.109E+00
DAV:   5    -0.604525322755E+02    0.11791E-01   -0.26920E-02   520   0.105E+00    0.265E-01
DAV:   6    -0.604531984677E+02   -0.66619E-03   -0.61085E-03   480   0.448E-01    0.101E-01
DAV:   7    -0.604540447107E+02   -0.84624E-03   -0.12306E-03   488   0.194E-01    0.590E-02
DAV:   8    -0.604549953855E+02   -0.95067E-03   -0.11448E-03   424   0.158E-01    0.337E-02
DAV:   9    -0.604558280693E+02   -0.83268E-03   -0.13802E-03   464   0.152E-01    0.277E-02
DAV:  10    -0.604561203983E+02   -0.29233E-03   -0.33792E-04   448   0.789E-02    0.129E-02
DAV:  11    -0.604561940963E+02   -0.73698E-04   -0.49269E-05   384   0.338E-02
  30 F= -.60456194E+02 E0= -.60454673E+02  d E =-.260955E+00
 curvature: -18.33 expect dE=-0.975E+01 dE for cont linesearch -0.602E-01
 ZBRENT: increasing intervall
 opt :   0.7747  next Energy=   -60.569624 (dE=-0.374E+00)
 bond charge predicted
       N       E                     dE             d eps       ncg     rms          rms(c)
DAV:   1    -0.785655655760E+02   -0.18109E+02   -0.18137E+03   384   0.354E+02    0.355E+01
DAV:   2    -0.638362826799E+02    0.14729E+02   -0.11907E+02   424   0.742E+01    0.145E+01
DAV:   3    -0.612559411416E+02    0.25803E+01   -0.12212E+01   496   0.234E+01    0.953E+00
DAV:   4    -0.606854017516E+02    0.57054E+00   -0.18364E+00   576   0.102E+01    0.286E+00
DAV:   5    -0.606282459738E+02    0.57156E-01   -0.21442E-01   512   0.302E+00    0.611E-01
DAV:   6    -0.606167749805E+02    0.11471E-01   -0.29904E-02   520   0.117E+00    0.267E-01
DAV:   7    -0.606085984382E+02    0.81765E-02   -0.68806E-03   496   0.535E-01    0.154E-01
DAV:   8    -0.606022030030E+02    0.63954E-02   -0.51753E-03   496   0.358E-01    0.106E-01
DAV:   9    -0.605988809839E+02    0.33220E-02   -0.48907E-03   456   0.339E-01    0.710E-02
DAV:  10    -0.605987782608E+02    0.10272E-03   -0.10745E-03   432   0.150E-01    0.326E-02
DAV:  11    -0.605991788771E+02   -0.40062E-03   -0.21525E-04   336   0.887E-02    0.154E-02
DAV:  12    -0.605995281603E+02   -0.34928E-03   -0.15856E-04   360   0.580E-02    0.107E-02
DAV:  13    -0.605996922503E+02   -0.16409E-03   -0.53118E-05   368   0.309E-02    0.540E-03
DAV:  14    -0.605998332215E+02   -0.14097E-03   -0.55073E-05   360   0.238E-02    0.295E-03
DAV:  15    -0.605998801700E+02   -0.46949E-04   -0.14995E-05   368   0.142E-02
  31 F= -.60599880E+02 E0= -.60599875E+02  d E =-.404641E+00
 curvature: -34.53 expect dE=-0.127E+03 dE for cont linesearch -0.526E-02
 trial: gam= 5.93875 g(F)=  0.347E+01 g(S)=  0.200E+00 ort = 0.105E+00 (trialstep = 0.518E-02)
 search vector abs. value=  0.255E+04
 bond charge predicted
       N       E                     dE             d eps       ncg     rms          rms(c)
DAV:   1    -0.606883581619E+02   -0.88525E-01   -0.64954E+00   384   0.167E+01    0.137E+00
DAV:   2    -0.606386511212E+02    0.49707E-01   -0.17491E-01   488   0.268E+00    0.700E-01
DAV:   3    -0.606201720376E+02    0.18479E-01   -0.80529E-02   496   0.164E+00    0.208E-01
DAV:   4    -0.606200400494E+02    0.13199E-03   -0.52407E-03   472   0.472E-01    0.109E-01
DAV:   5    -0.606199344405E+02    0.10561E-03   -0.60396E-04   504   0.148E-01    0.371E-02
DAV:   6    -0.606201268467E+02   -0.19241E-03   -0.10883E-04   296   0.695E-02    0.154E-02
DAV:   7    -0.606203718140E+02   -0.24497E-03   -0.98240E-05   344   0.526E-02    0.140E-02
DAV:   8    -0.606207023540E+02   -0.33054E-03   -0.11482E-04   360   0.535E-02    0.775E-03
DAV:   9    -0.606208986991E+02   -0.19635E-03   -0.63696E-05   368   0.326E-02    0.491E-03
DAV:  10    -0.606209783485E+02   -0.79649E-04   -0.16535E-05   368   0.188E-02
  32 F= -.60620978E+02 E0= -.60620973E+02  d E =-.210982E-01
 ZBRENT: can't locate minimum, use default step
 trial-energy change:   -0.021098  1 .order   -0.021438   -0.022252   -0.020625
 step:   0.0207(harm=  0.0709)  dis= 0.06342  next Energy=   -60.752030 (dE=-0.152E+00)
 bond charge predicted
       N       E                     dE             d eps       ncg     rms          rms(c)
DAV:   1    -0.613080826863E+02   -0.68718E+00   -0.58846E+01   384   0.496E+01    0.435E+00
DAV:   2    -0.608380407146E+02    0.47004E+00   -0.17322E+00   384   0.859E+00    0.219E+00
DAV:   3    -0.606778794373E+02    0.16016E+00   -0.67949E-01   496   0.495E+00    0.725E-01
DAV:   4    -0.606747805319E+02    0.30989E-02   -0.42843E-02   488   0.133E+00    0.376E-01
DAV:   5    -0.606728235758E+02    0.19570E-02   -0.52355E-03   504   0.444E-01    0.129E-01
DAV:   6    -0.606729662302E+02   -0.14265E-03   -0.12354E-03   448   0.219E-01    0.514E-02
DAV:   7    -0.606734896896E+02   -0.52346E-03   -0.63279E-04   400   0.135E-01    0.468E-02
DAV:   8    -0.606742769101E+02   -0.78722E-03   -0.57609E-04   376   0.121E-01    0.276E-02
DAV:   9    -0.606748642871E+02   -0.58738E-03   -0.26772E-04   408   0.744E-02    0.156E-02
DAV:  10    -0.606750985144E+02   -0.23423E-03   -0.59061E-05   368   0.375E-02    0.638E-03
DAV:  11    -0.606752975467E+02   -0.19903E-03   -0.59801E-05   360   0.300E-02    0.314E-03
DAV:  12    -0.606754149944E+02   -0.11745E-03   -0.44658E-05   368   0.173E-02    0.162E-03
DAV:  13    -0.606754282122E+02   -0.13218E-04   -0.64570E-06   376   0.967E-03
  33 F= -.60675428E+02 E0= -.60675422E+02  d E =-.755480E-01
 curvature:  -8.79 expect dE=-0.317E+02 dE for cont linesearch -0.364E-01
 ZBRENT: increasing intervall
 opt :   0.0518  next Energy=   -60.753830 (dE=-0.154E+00)
 bond charge predicted
       N       E                     dE             d eps       ncg     rms          rms(c)
DAV:   1    -0.635204973058E+02   -0.28451E+01   -0.24826E+02   384   0.104E+02    0.101E+01
DAV:   2    -0.613759284193E+02    0.21446E+01   -0.95817E+00   384   0.200E+01    0.468E+00
DAV:   3    -0.607886141291E+02    0.58731E+00   -0.22357E+00   496   0.927E+00    0.203E+00
DAV:   4    -0.607488877535E+02    0.39726E-01   -0.15154E-01   496   0.244E+00    0.891E-01
DAV:   5    -0.607389690264E+02    0.99187E-02   -0.19875E-02   576   0.904E-01    0.260E-01
DAV:   6    -0.607380616622E+02    0.90736E-03   -0.36032E-03   480   0.375E-01    0.954E-02
DAV:   7    -0.607385685846E+02   -0.50692E-03   -0.14313E-03   432   0.214E-01    0.884E-02
DAV:   8    -0.607402187359E+02   -0.16502E-02   -0.15216E-03   392   0.203E-01    0.426E-02
DAV:   9    -0.607415305311E+02   -0.13118E-02   -0.59627E-04   424   0.108E-01    0.213E-02
DAV:  10    -0.607423455167E+02   -0.81499E-03   -0.33665E-04   376   0.711E-02    0.783E-03
DAV:  11    -0.607426307895E+02   -0.28527E-03   -0.10314E-04   368   0.386E-02    0.394E-03
DAV:  12    -0.607427285857E+02   -0.97796E-04   -0.47764E-05   368   0.287E-02
  34 F= -.60742729E+02 E0= -.60742721E+02  d E =-.142848E+00
 curvature: -18.94 expect dE=-0.725E+02 dE for cont linesearch -0.145E-01
 ZBRENT: increasing intervall
 opt :   0.1140  next Energy=   -60.714401 (dE=-0.115E+00)
 bond charge predicted
       N       E                     dE             d eps       ncg     rms          rms(c)
DAV:   1    -0.738360720804E+02   -0.13093E+02   -0.12696E+03   448   0.283E+02    0.297E+01
DAV:   2    -0.629030865612E+02    0.10933E+02   -0.64254E+01   384   0.509E+01    0.117E+01
DAV:   3    -0.608987405843E+02    0.20043E+01   -0.88055E+00   472   0.183E+01    0.750E+00
DAV:   4    -0.605607144100E+02    0.33803E+00   -0.11576E+00   528   0.728E+00    0.240E+00
DAV:   5    -0.605277713933E+02    0.32943E-01   -0.14338E-01   496   0.241E+00    0.589E-01
DAV:   6    -0.605286890792E+02   -0.91769E-03   -0.17538E-02   464   0.883E-01    0.223E-01
DAV:   7    -0.605342381672E+02   -0.55491E-02   -0.38375E-03   408   0.450E-01    0.121E-01
DAV:   8    -0.605417773131E+02   -0.75391E-02   -0.32341E-03   464   0.284E-01    0.771E-02
DAV:   9    -0.605486705469E+02   -0.68932E-02   -0.42634E-03   432   0.214E-01    0.311E-02
DAV:  10    -0.605490563172E+02   -0.38577E-03   -0.23196E-04   384   0.970E-02    0.140E-02
DAV:  11    -0.605490537164E+02    0.26008E-05   -0.22530E-05   312   0.417E-02
  35 F= -.60549054E+02 E0= -.60549049E+02  d E =0.508265E-01
 curvature:  37.03 expect dE= 0.210E+03 dE for cont linesearch  0.651E+00
 ZBRENT: bracketing found
 ZBRENT: interpolating
 opt :   0.0625  next Energy=   -60.750227 (dE=-0.150E+00)
 bond charge predicted
       N       E                     dE             d eps       ncg     rms          rms(c)
DAV:   1    -0.686542839609E+02   -0.81052E+01   -0.10661E+03   400   0.290E+02    0.157E+01
DAV:   2    -0.643556790838E+02    0.42986E+01   -0.35554E+01   400   0.467E+01    0.887E+00
DAV:   3    -0.611153934397E+02    0.32403E+01   -0.79152E+00   456   0.163E+01    0.274E+00
DAV:   4    -0.608107173085E+02    0.30468E+00   -0.63531E-01   528   0.475E+00    0.130E+00
DAV:   5    -0.606977889687E+02    0.11293E+00   -0.10714E-01   512   0.175E+00    0.517E-01
DAV:   6    -0.606615413078E+02    0.36248E-01   -0.22122E-02   496   0.901E-01    0.267E-01
DAV:   7    -0.606556751331E+02    0.58662E-02   -0.17212E-02   512   0.660E-01    0.203E-01
DAV:   8    -0.606676099145E+02   -0.11935E-01   -0.86116E-03   448   0.548E-01    0.792E-02
DAV:   9    -0.606719732972E+02   -0.43634E-02   -0.16141E-03   488   0.291E-01    0.370E-02
DAV:  10    -0.606737302892E+02   -0.17570E-02   -0.44622E-04   416   0.162E-01    0.180E-02
DAV:  11    -0.606739851983E+02   -0.25491E-03   -0.11990E-04   272   0.104E-01    0.738E-03
DAV:  12    -0.606740050298E+02   -0.19832E-04   -0.35846E-05   320   0.593E-02
  36 F= -.60674005E+02 E0= -.60674004E+02  d E =-.741249E-01
 curvature:  -0.43 expect dE=-0.226E+01 dE for cont linesearch -0.605E-03
 trial: gam= 0.26277 g(F)=  0.503E+01 g(S)=  0.263E+00 ort = 0.190E+01 (trialstep = 0.167E-01)
 search vector abs. value=  0.183E+03
 bond charge predicted
       N       E                     dE             d eps       ncg     rms          rms(c)
DAV:   1    -0.608131954034E+02   -0.13921E+00   -0.50829E+00   384   0.151E+01    0.116E+00
DAV:   2    -0.607767636400E+02    0.36432E-01   -0.14185E-01   464   0.244E+00    0.600E-01
DAV:   3    -0.607619128592E+02    0.14851E-01   -0.59948E-02   496   0.141E+00    0.188E-01
DAV:   4    -0.607619671062E+02   -0.54247E-04   -0.37932E-03   480   0.393E-01    0.101E-01
DAV:   5    -0.607619654408E+02    0.16654E-05   -0.41175E-04   408   0.123E-01
  37 F= -.60761965E+02 E0= -.60761965E+02  d E =-.879604E-01
 ZBRENT: can't locate minimum, use default step
 trial-energy change:   -0.087960  1 .order   -0.090675   -0.096471   -0.084880
 step:   0.0666(harm=  0.1386)  dis= 0.05279  next Energy=   -61.075488 (dE=-0.401E+00)
 bond charge predicted
       N       E                     dE             d eps       ncg     rms          rms(c)
DAV:   1    -0.614152724677E+02   -0.65331E+00   -0.45733E+01   384   0.446E+01    0.366E+00
DAV:   2    -0.610752419775E+02    0.34003E+00   -0.13449E+00   384   0.760E+00    0.185E+00
DAV:   3    -0.609516164299E+02    0.12363E+00   -0.49454E-01   472   0.414E+00    0.646E-01
DAV:   4    -0.609501247027E+02    0.14917E-02   -0.30670E-02   496   0.111E+00    0.338E-01
DAV:   5    -0.609491990214E+02    0.92568E-03   -0.38317E-03   464   0.383E-01    0.113E-01
DAV:   6    -0.609502493828E+02   -0.10504E-02   -0.92988E-04   424   0.191E-01    0.423E-02
DAV:   7    -0.609518882966E+02   -0.16389E-02   -0.54459E-04   400   0.121E-01    0.419E-02
DAV:   8    -0.609542138672E+02   -0.23256E-02   -0.10662E-03   416   0.118E-01    0.190E-02
DAV:   9    -0.609551855127E+02   -0.97165E-03   -0.48601E-04   416   0.655E-02    0.943E-03
DAV:  10    -0.609552342614E+02   -0.48749E-04   -0.20151E-05   352   0.313E-02
  38 F= -.60955234E+02 E0= -.60955234E+02  d E =-.281229E+00
 curvature:  -1.42 expect dE=-0.241E+01 dE for cont linesearch -0.587E-01
 ZBRENT: increasing intervall
 opt :   0.1665  next Energy=   -60.994407 (dE=-0.320E+00)
 bond charge predicted
       N       E                     dE             d eps       ncg     rms          rms(c)
DAV:   1    -0.629283694162E+02   -0.19732E+01   -0.18815E+02   384   0.911E+01    0.823E+00
DAV:   2    -0.615090405824E+02    0.14193E+01   -0.63020E+00   400   0.169E+01    0.393E+00
DAV:   3    -0.610278993407E+02    0.48114E+00   -0.17324E+00   472   0.817E+00    0.166E+00
DAV:   4    -0.610082346414E+02    0.19665E-01   -0.11502E-01   504   0.216E+00    0.782E-01
DAV:   5    -0.610028810811E+02    0.53536E-02   -0.14340E-02   464   0.760E-01    0.227E-01
DAV:   6    -0.610046962231E+02   -0.18151E-02   -0.28979E-03   408   0.350E-01    0.810E-02
DAV:   7    -0.610083411776E+02   -0.36450E-02   -0.15473E-03   440   0.222E-01    0.793E-02
DAV:   8    -0.610137468756E+02   -0.54057E-02   -0.29598E-03   464   0.195E-01    0.338E-02
DAV:   9    -0.610152651704E+02   -0.15183E-02   -0.75007E-04   424   0.993E-02    0.153E-02
DAV:  10    -0.610152921977E+02   -0.27027E-04   -0.37161E-05   320   0.492E-02
  39 F= -.61015292E+02 E0= -.61015291E+02  d E =-.341287E+00
 curvature:  -0.95 expect dE=-0.500E+00 dE for cont linesearch -0.133E-01
 ZBRENT: bracketing found
 ZBRENT: interpolating
 opt :   0.1298  next Energy=   -61.044686 (dE=-0.371E+00)
 bond charge predicted
       N       E                     dE             d eps       ncg     rms          rms(c)
DAV:   1    -0.613025402813E+02   -0.28728E+00   -0.27237E+01   384   0.370E+01    0.263E+00
DAV:   2    -0.611248829210E+02    0.17766E+00   -0.77791E-01   384   0.619E+00    0.140E+00
DAV:   3    -0.610461424023E+02    0.78741E-01   -0.35355E-01   472   0.334E+00    0.390E-01
DAV:   4    -0.610435951906E+02    0.25472E-02   -0.21231E-02   472   0.944E-01    0.208E-01
DAV:   5    -0.610417204456E+02    0.18747E-02   -0.29469E-03   496   0.326E-01    0.779E-02
DAV:   6    -0.610417019791E+02    0.18466E-04   -0.44521E-04   416   0.159E-01
  40 F= -.61041702E+02 E0= -.61041701E+02  d E =-.367697E+00
 curvature:  -2.10 expect dE=-0.969E+00 dE for cont linesearch -0.292E-03
 trial: gam=-0.08084 g(F)=  0.394E+00 g(S)=  0.672E-01 ort =-0.159E+00 (trialstep = 0.393E-01)
 search vector abs. value=  0.168E+01
 bond charge predicted
       N       E                     dE             d eps       ncg     rms          rms(c)
DAV:   1    -0.610609601715E+02   -0.19240E-01   -0.25560E-01   384   0.348E+00    0.227E-01
DAV:   2    -0.610595099454E+02    0.14502E-02   -0.71133E-03   480   0.562E-01    0.117E-01
DAV:   3    -0.610589200379E+02    0.58991E-03   -0.27853E-03   456   0.296E-01    0.395E-02
DAV:   4    -0.610589029155E+02    0.17122E-04   -0.18137E-04   288   0.968E-02
  41 F= -.61058903E+02 E0= -.61058902E+02  d E =-.172009E-01
 ZBRENT: can't locate minimum, use default step
 trial-energy change:   -0.017201  1 .order   -0.017403   -0.018615   -0.016191
 step:   0.1571(harm=  0.3017)  dis= 0.01052  next Energy=   -61.113188 (dE=-0.715E-01)
 bond charge predicted
       N       E                     dE             d eps       ncg     rms          rms(c)
DAV:   1    -0.611153922170E+02   -0.56472E-01   -0.23313E+00   384   0.105E+01    0.682E-01
DAV:   2    -0.611034747817E+02    0.11917E-01   -0.62974E-02   448   0.168E+00    0.364E-01
DAV:   3    -0.610985967913E+02    0.48780E-02   -0.23827E-02   480   0.867E-01    0.124E-01
DAV:   4    -0.610984004856E+02    0.19631E-03   -0.18736E-03   480   0.290E-01    0.673E-02
DAV:   5    -0.610982791597E+02    0.12133E-03   -0.27340E-04   352   0.103E-01    0.224E-02
DAV:   6    -0.610982539841E+02    0.25176E-04   -0.49626E-05   288   0.632E-02
  42 F= -.61098254E+02 E0= -.61098253E+02  d E =-.565520E-01
 curvature:  -0.37 expect dE=-0.785E-01 dE for cont linesearch -0.156E-01
 ZBRENT: increasing intervall
 opt :   0.3928  next Energy=   -61.125970 (dE=-0.843E-01)
 bond charge predicted
       N       E                     dE             d eps       ncg     rms          rms(c)
DAV:   1    -0.611990326346E+02   -0.10075E+00   -0.94349E+00   448   0.212E+01    0.136E+00
DAV:   2    -0.611454143740E+02    0.53618E-01   -0.18121E-01   456   0.309E+00    0.716E-01
DAV:   3    -0.611262444210E+02    0.19170E-01   -0.96927E-02   480   0.171E+00    0.236E-01
DAV:   4    -0.611254665466E+02    0.77787E-03   -0.72699E-03   488   0.548E-01    0.128E-01
DAV:   5    -0.611250475482E+02    0.41900E-03   -0.11437E-03   544   0.190E-01    0.444E-02
DAV:   6    -0.611249891931E+02    0.58355E-04   -0.16214E-04   304   0.947E-02
  43 F= -.61124989E+02 E0= -.61124986E+02  d E =-.832872E-01
 curvature:  -0.66 expect dE=-0.216E+00 dE for cont linesearch -0.310E-03
 trial: gam= 0.73415 g(F)=  0.277E+00 g(S)=  0.479E-01 ort =-0.280E-01 (trialstep = 0.110E+00)
 search vector abs. value=  0.119E+01
 bond charge predicted
       N       E                     dE             d eps       ncg     rms          rms(c)
DAV:   1    -0.611606331337E+02   -0.35586E-01   -0.13178E+00   448   0.820E+00    0.492E-01
DAV:   2    -0.611551279986E+02    0.55051E-02   -0.26248E-02   512   0.115E+00    0.264E-01
DAV:   3    -0.611530884869E+02    0.20395E-02   -0.95207E-03   496   0.594E-01    0.791E-02
DAV:   4    -0.611529594590E+02    0.12903E-03   -0.76959E-04   472   0.186E-01    0.456E-02
DAV:   5    -0.611528996923E+02    0.59767E-04   -0.18099E-04   320   0.797E-02
  44 F= -.61152900E+02 E0= -.61152896E+02  d E =-.279105E-01
 trial-energy change:   -0.027910  1 .order   -0.028205   -0.033521   -0.022889
 step:   0.3467(harm=  0.3467)  dis= 0.01939  next Energy=   -61.177833 (dE=-0.528E-01)
 bond charge predicted
       N       E                     dE             d eps       ncg     rms          rms(c)
DAV:   1    -0.612139595643E+02   -0.61000E-01   -0.61312E+00   448   0.178E+01    0.106E+00
DAV:   2    -0.611889736397E+02    0.24986E-01   -0.12202E-01   512   0.253E+00    0.571E-01
DAV:   3    -0.611798201367E+02    0.91535E-02   -0.43266E-02   496   0.127E+00    0.173E-01
DAV:   4    -0.611792095365E+02    0.61060E-03   -0.35111E-03   488   0.394E-01    0.993E-02
DAV:   5    -0.611789622526E+02    0.24728E-03   -0.90477E-04   496   0.160E-01    0.327E-02
DAV:   6    -0.611789262839E+02    0.35969E-04   -0.97380E-05   312   0.731E-02
  45 F= -.61178926E+02 E0= -.61178921E+02  d E =-.539371E-01
 curvature:  -0.68 expect dE=-0.112E+00 dE for cont linesearch -0.124E-03
 trial: gam= 0.35610 g(F)=  0.148E+00 g(S)=  0.181E-01 ort = 0.148E-01 (trialstep = 0.157E+00)
 search vector abs. value=  0.327E+00
 bond charge predicted
       N       E                     dE             d eps       ncg     rms          rms(c)
DAV:   1    -0.611997103875E+02   -0.20748E-01   -0.83432E-01   400   0.662E+00    0.286E-01
DAV:   2    -0.611994179772E+02    0.29241E-03   -0.19961E-02   512   0.962E-01    0.167E-01
DAV:   3    -0.611986995047E+02    0.71847E-03   -0.29445E-03   472   0.378E-01    0.433E-02
DAV:   4    -0.611986830356E+02    0.16469E-04   -0.26059E-04   376   0.104E-01
  46 F= -.61198683E+02 E0= -.61198679E+02  d E =-.197568E-01
 trial-energy change:   -0.019757  1 .order   -0.019744   -0.026903   -0.012585
 step:   0.2956(harm=  0.2956)  dis= 0.01080  next Energy=   -61.204202 (dE=-0.253E-01)
 bond charge predicted
       N       E                     dE             d eps       ncg     rms          rms(c)
DAV:   1    -0.612052137453E+02   -0.65142E-02   -0.64242E-01   400   0.580E+00    0.253E-01
DAV:   2    -0.612050048712E+02    0.20887E-03   -0.15378E-02   512   0.841E-01    0.148E-01
DAV:   3    -0.612044562241E+02    0.54865E-03   -0.22444E-03   480   0.329E-01    0.396E-02
DAV:   4    -0.612044419187E+02    0.14305E-04   -0.20263E-04   384   0.911E-02
  47 F= -.61204442E+02 E0= -.61204438E+02  d E =-.255156E-01
 curvature:  -0.28 expect dE=-0.315E-01 dE for cont linesearch -0.561E-05
 trial: gam= 0.71630 g(F)=  0.103E+00 g(S)=  0.880E-02 ort = 0.255E-02 (trialstep = 0.185E+00)
 search vector abs. value=  0.283E+00
 bond charge predicted
       N       E                     dE             d eps       ncg     rms          rms(c)
DAV:   1    -0.612232091239E+02   -0.18753E-01   -0.87684E-01   384   0.664E+00    0.226E-01
DAV:   2    -0.612238635546E+02   -0.65443E-03   -0.17420E-02   496   0.886E-01    0.135E-01
DAV:   3    -0.612235491068E+02    0.31445E-03   -0.15033E-03   496   0.258E-01    0.648E-02
DAV:   4    -0.612235315023E+02    0.17604E-04   -0.17544E-04   360   0.910E-02
  48 F= -.61223532E+02 E0= -.61223528E+02  d E =-.190896E-01
 ZBRENT: can't locate minimum, use default step
 trial-energy change:   -0.019090  1 .order   -0.018996   -0.020943   -0.017049
 step:   0.7399(harm=  0.9948)  dis= 0.03391  next Energy=   -61.260757 (dE=-0.563E-01)
 bond charge predicted
       N       E                     dE             d eps       ncg     rms          rms(c)
DAV:   1    -0.612524599579E+02   -0.28911E-01   -0.79061E+00   384   0.200E+01    0.662E-01
DAV:   2    -0.612588279753E+02   -0.63680E-02   -0.15805E-01   496   0.269E+00    0.402E-01
DAV:   3    -0.612559770822E+02    0.28509E-02   -0.14719E-02   504   0.803E-01    0.176E-01
DAV:   4    -0.612558645965E+02    0.11249E-03   -0.18784E-03   480   0.281E-01    0.999E-02
DAV:   5    -0.612558330026E+02    0.31594E-04   -0.16466E-04   312   0.971E-02
  49 F= -.61255833E+02 E0= -.61255830E+02  d E =-.513911E-01
 curvature:  -1.12 expect dE=-0.138E+00 dE for cont linesearch -0.204E-02
 trial: gam= 0.88637 g(F)=  0.105E+00 g(S)=  0.181E-01 ort = 0.227E-01 (trialstep = 0.217E+00)
 search vector abs. value=  0.386E+00
 bond charge predicted
       N       E                     dE             d eps       ncg     rms          rms(c)
DAV:   1    -0.612813044376E+02   -0.25440E-01   -0.16329E+00   384   0.898E+00    0.261E-01
DAV:   2    -0.612829037409E+02   -0.15993E-02   -0.28829E-02   512   0.119E+00    0.167E-01
DAV:   3    -0.612824674216E+02    0.43632E-03   -0.22114E-03   496   0.323E-01    0.807E-02
DAV:   4    -0.612824417888E+02    0.25633E-04   -0.38692E-04   424   0.121E-01
  50 F= -.61282442E+02 E0= -.61282440E+02  d E =-.266088E-01
 trial-energy change:   -0.026609  1 .order   -0.026590   -0.031141   -0.022040
 step:   0.7423(harm=  0.7423)  dis= 0.03668  next Energy=   -61.309108 (dE=-0.533E-01)
 bond charge predicted
       N       E                     dE             d eps       ncg     rms          rms(c)
DAV:   1    -0.613016941411E+02   -0.19227E-01   -0.95550E+00   384   0.218E+01    0.632E-01
DAV:   2    -0.613110010982E+02   -0.93070E-02   -0.16867E-01   512   0.289E+00    0.404E-01
DAV:   3    -0.613084458599E+02    0.25552E-02   -0.13319E-02   496   0.794E-01    0.184E-01
DAV:   4    -0.613083341359E+02    0.11172E-03   -0.23016E-03   496   0.291E-01    0.925E-02
DAV:   5    -0.613083236290E+02    0.10507E-04   -0.24451E-04   368   0.103E-01
  51 F= -.61308324E+02 E0= -.61308323E+02  d E =-.524906E-01
 curvature:  -1.00 expect dE=-0.164E+00 dE for cont linesearch -0.145E-04
 trial: gam= 1.65416 g(F)=  0.161E+00 g(S)=  0.328E-02 ort =-0.237E-02 (trialstep = 0.103E+00)
 search vector abs. value=  0.121E+01
 bond charge predicted
       N       E                     dE             d eps       ncg     rms          rms(c)
DAV:   1    -0.613218860082E+02   -0.13552E-01   -0.11726E+00   384   0.757E+00    0.209E-01
DAV:   2    -0.613230814490E+02   -0.11954E-02   -0.20149E-02   528   0.979E-01    0.134E-01
DAV:   3    -0.613228013362E+02    0.28011E-03   -0.11556E-03   496   0.239E-01    0.566E-02
DAV:   4    -0.613227999666E+02    0.13696E-05   -0.18789E-04   432   0.887E-02
  52 F= -.61322800E+02 E0= -.61322799E+02  d E =-.144763E-01
 ZBRENT: can't locate minimum, use default step
 trial-energy change:   -0.014476  1 .order   -0.014422   -0.016438   -0.012407
 step:   0.4100(harm=  0.4180)  dis= 0.04101  next Energy=   -61.341840 (dE=-0.335E-01)
 bond charge predicted
       N       E                     dE             d eps       ncg     rms          rms(c)
DAV:   1    -0.613332199212E+02   -0.10419E-01   -0.10532E+01   384   0.227E+01    0.630E-01
DAV:   2    -0.613441529689E+02   -0.10933E-01   -0.18205E-01   528   0.293E+00    0.400E-01
DAV:   3    -0.613416190367E+02    0.25339E-02   -0.10093E-02   472   0.706E-01    0.167E-01
DAV:   4    -0.613416378722E+02   -0.18836E-04   -0.16719E-03   480   0.259E-01    0.703E-02
DAV:   5    -0.613416776267E+02   -0.39755E-04   -0.12874E-04   336   0.830E-02
  53 F= -.61341678E+02 E0= -.61341677E+02  d E =-.333540E-01
 curvature:  -1.58 expect dE=-0.334E+00 dE for cont linesearch -0.807E-05
 trial: gam= 1.08732 g(F)=  0.195E+00 g(S)=  0.166E-01 ort = 0.249E-02 (trialstep = 0.120E+00)
 search vector abs. value=  0.165E+01
 bond charge predicted
       N       E                     dE             d eps       ncg     rms          rms(c)
DAV:   1    -0.613624283724E+02   -0.20791E-01   -0.22225E+00   384   0.105E+01    0.298E-01
DAV:   2    -0.613647525115E+02   -0.23241E-02   -0.38083E-02   512   0.133E+00    0.194E-01
DAV:   3    -0.613642558461E+02    0.49667E-03   -0.20120E-03   520   0.334E-01    0.878E-02
DAV:   4    -0.613642558572E+02   -0.11155E-07   -0.31233E-04   448   0.128E-01
  54 F= -.61364256E+02 E0= -.61364255E+02  d E =-.225782E-01
 trial-energy change:   -0.022578  1 .order   -0.022442   -0.025816   -0.019068
 step:   0.4609(harm=  0.4609)  dis= 0.05608  next Energy=   -61.391060 (dE=-0.494E-01)
 bond charge predicted
       N       E                     dE             d eps       ncg     rms          rms(c)
DAV:   1    -0.613753398489E+02   -0.11084E-01   -0.17707E+01   384   0.297E+01    0.867E-01
DAV:   2    -0.613958055767E+02   -0.20466E-01   -0.32047E-01   512   0.384E+00    0.558E-01
DAV:   3    -0.613918779187E+02    0.39277E-02   -0.14838E-02   544   0.897E-01    0.297E-01
DAV:   4    -0.613915921649E+02    0.28575E-03   -0.27159E-03   464   0.393E-01    0.101E-01
DAV:   5    -0.613917748187E+02   -0.18265E-03   -0.25407E-04   392   0.114E-01    0.231E-02
DAV:   6    -0.613919080587E+02   -0.13324E-03   -0.63638E-05   320   0.551E-02    0.756E-03
DAV:   7    -0.613919615680E+02   -0.53509E-04   -0.23079E-05   360   0.335E-02
  55 F= -.61391962E+02 E0= -.61391958E+02  d E =-.502839E-01
 curvature:  -1.78 expect dE=-0.202E+00 dE for cont linesearch -0.574E-05
 trial: gam= 0.53695 g(F)=  0.104E+00 g(S)=  0.991E-02 ort = 0.231E-02 (trialstep = 0.189E+00)
 search vector abs. value=  0.592E+00
 bond charge predicted
       N       E                     dE             d eps       ncg     rms          rms(c)
DAV:   1    -0.614086451017E+02   -0.16737E-01   -0.19567E+00   384   0.964E+00    0.313E-01
DAV:   2    -0.614102088288E+02   -0.15637E-02   -0.35370E-02   512   0.132E+00    0.194E-01
DAV:   3    -0.614096167377E+02    0.59209E-03   -0.29906E-03   520   0.388E-01    0.671E-02
DAV:   4    -0.614096055514E+02    0.11186E-04   -0.47180E-04   480   0.139E-01
  56 F= -.61409606E+02 E0= -.61409602E+02  d E =-.176440E-01
 trial-energy change:   -0.017644  1 .order   -0.017626   -0.021731   -0.013521
 step:   0.4992(harm=  0.4992)  dis= 0.03493  next Energy=   -61.420722 (dE=-0.288E-01)
 bond charge predicted
       N       E                     dE             d eps       ncg     rms          rms(c)
DAV:   1    -0.614180450556E+02   -0.84283E-02   -0.52957E+00   384   0.159E+01    0.516E-01
DAV:   2    -0.614224217225E+02   -0.43767E-02   -0.95935E-02   512   0.216E+00    0.322E-01
DAV:   3    -0.614208563665E+02    0.15654E-02   -0.78465E-03   480   0.627E-01    0.114E-01
DAV:   4    -0.614208731050E+02   -0.16739E-04   -0.12261E-03   472   0.224E-01    0.607E-02
DAV:   5    -0.614209294977E+02   -0.56393E-04   -0.13118E-04   320   0.770E-02
  57 F= -.61420929E+02 E0= -.61420925E+02  d E =-.289679E-01
 curvature:  -1.28 expect dE=-0.126E+00 dE for cont linesearch -0.216E-05
 trial: gam= 0.82875 g(F)=  0.866E-01 g(S)=  0.119E-01 ort = 0.998E-03 (trialstep = 0.251E+00)
 search vector abs. value=  0.507E+00
 bond charge predicted
       N       E                     dE             d eps       ncg     rms          rms(c)
DAV:   1    -0.614389704125E+02   -0.18097E-01   -0.31747E+00   384   0.121E+01    0.400E-01
DAV:   2    -0.614411609046E+02   -0.21905E-02   -0.57637E-02   528   0.173E+00    0.254E-01
DAV:   3    -0.614400810169E+02    0.10799E-02   -0.53014E-03   512   0.496E-01    0.814E-02
DAV:   4    -0.614400933348E+02   -0.12318E-04   -0.67933E-04   504   0.170E-01
  58 F= -.61440093E+02 E0= -.61440091E+02  d E =-.191638E-01
 trial-energy change:   -0.019164  1 .order   -0.019119   -0.024901   -0.013338
 step:   0.5398(harm=  0.5398)  dis= 0.03246  next Energy=   -61.447741 (dE=-0.268E-01)
 bond charge predicted
       N       E                     dE             d eps       ncg     rms          rms(c)
DAV:   1    -0.614460278589E+02   -0.59468E-02   -0.42229E+00   384   0.140E+01    0.467E-01
DAV:   2    -0.614487989473E+02   -0.27711E-02   -0.76630E-02   528   0.199E+00    0.298E-01
DAV:   3    -0.614473180470E+02    0.14809E-02   -0.72957E-03   520   0.581E-01    0.962E-02
DAV:   4    -0.614473407062E+02   -0.22659E-04   -0.93327E-04   464   0.199E-01
  59 F= -.61447341E+02 E0= -.61447339E+02  d E =-.264112E-01
 curvature:  -1.38 expect dE=-0.222E+00 dE for cont linesearch -0.133E-04
 trial: gam= 1.68887 g(F)=  0.149E+00 g(S)=  0.124E-01 ort =-0.221E-02 (trialstep = 0.978E-01)
 search vector abs. value=  0.160E+01
 bond charge predicted
       N       E                     dE             d eps       ncg     rms          rms(c)
DAV:   1    -0.614601685934E+02   -0.12851E-01   -0.15111E+00   384   0.822E+00    0.281E-01
DAV:   2    -0.614611577916E+02   -0.98920E-03   -0.26759E-02   520   0.114E+00    0.171E-01
DAV:   3    -0.614606916790E+02    0.46611E-03   -0.24305E-03   496   0.340E-01    0.496E-02
DAV:   4    -0.614607025830E+02   -0.10904E-04   -0.29753E-04   440   0.122E-01
  60 F= -.61460703E+02 E0= -.61460702E+02  d E =-.133619E-01
 trial-energy change:   -0.013362  1 .order   -0.013365   -0.015391   -0.011339
 step:   0.3714(harm=  0.3714)  dis= 0.03627  next Energy=   -61.476574 (dE=-0.292E-01)
 bond charge predicted
       N       E                     dE             d eps       ncg     rms          rms(c)
DAV:   1    -0.614721068122E+02   -0.11415E-01   -0.11866E+01   384   0.232E+01    0.784E-01
DAV:   2    -0.614808194898E+02   -0.87127E-02   -0.21828E-01   528   0.314E+00    0.475E-01
DAV:   3    -0.614767429960E+02    0.40765E-02   -0.17461E-02   520   0.910E-01    0.147E-01
DAV:   4    -0.614767422433E+02    0.75269E-06   -0.19959E-03   456   0.301E-01    0.720E-02
DAV:   5    -0.614768863815E+02   -0.14414E-03   -0.30135E-04   344   0.112E-01    0.238E-02
DAV:   6    -0.614769924339E+02   -0.10605E-03   -0.58495E-05   344   0.592E-02    0.954E-03
DAV:   7    -0.614770444229E+02   -0.51989E-04   -0.19420E-05   328   0.326E-02
  61 F= -.61477044E+02 E0= -.61477044E+02  d E =-.297037E-01
 curvature:  -1.89 expect dE=-0.160E+00 dE for cont linesearch -0.331E-05
 trial: gam= 0.39148 g(F)=  0.721E-01 g(S)=  0.127E-01 ort = 0.168E-02 (trialstep = 0.153E+00)
 search vector abs. value=  0.331E+00
 bond charge predicted
       N       E                     dE             d eps       ncg     rms          rms(c)
DAV:   1    -0.614880652043E+02   -0.11073E-01   -0.77340E-01   384   0.588E+00    0.217E-01
DAV:   2    -0.614886447342E+02   -0.57953E-03   -0.15193E-02   552   0.800E-01    0.141E-01
DAV:   3    -0.614883260943E+02    0.31864E-03   -0.10705E-03   560   0.241E-01    0.537E-02
DAV:   4    -0.614883128994E+02    0.13195E-04   -0.11651E-04   336   0.808E-02
  62 F= -.61488313E+02 E0= -.61488312E+02  d E =-.112685E-01
 trial-energy change:   -0.011268  1 .order   -0.011220   -0.013039   -0.009401
 step:   0.5466(harm=  0.5466)  dis= 0.02359  next Energy=   -61.500413 (dE=-0.234E-01)
 bond charge predicted
       N       E                     dE             d eps       ncg     rms          rms(c)
DAV:   1    -0.614987679783E+02   -0.10442E-01   -0.51679E+00   384   0.153E+01    0.558E-01
DAV:   2    -0.615032423498E+02   -0.44744E-02   -0.10551E-01   560   0.209E+00    0.364E-01
DAV:   3    -0.615011913668E+02    0.20510E-02   -0.68357E-03   520   0.594E-01    0.152E-01
DAV:   4    -0.615010989896E+02    0.92377E-04   -0.96256E-04   456   0.224E-01
  63 F= -.61501099E+02 E0= -.61501097E+02  d E =-.240546E-01
 curvature:  -1.06 expect dE=-0.715E-01 dE for cont linesearch -0.160E-04
 trial: gam= 0.77503 g(F)=  0.509E-01 g(S)=  0.167E-01 ort = 0.224E-02 (trialstep = 0.231E+00)
 search vector abs. value=  0.270E+00
 bond charge predicted
       N       E                     dE             d eps       ncg     rms          rms(c)
DAV:   1    -0.615112898022E+02   -0.10098E-01   -0.15039E+00   384   0.831E+00    0.327E-01
DAV:   2    -0.615118574809E+02   -0.56768E-03   -0.31935E-02   528   0.124E+00    0.199E-01
DAV:   3    -0.615110666456E+02    0.79084E-03   -0.31959E-03   528   0.379E-01    0.679E-02
DAV:   4    -0.615110665677E+02    0.77803E-07   -0.34744E-04   464   0.126E-01
  64 F= -.61511067E+02 E0= -.61511064E+02  d E =-.996758E-02
 trial-energy change:   -0.009968  1 .order   -0.009967   -0.016028   -0.003907
 step:   0.3059(harm=  0.3059)  dis= 0.01185  next Energy=   -61.511696 (dE=-0.106E-01)
 bond charge predicted
       N       E                     dE             d eps       ncg     rms          rms(c)
DAV:   1    -0.615117033537E+02   -0.63671E-03   -0.15612E-01   384   0.268E+00    0.106E-01
DAV:   2    -0.615117724091E+02   -0.69055E-04   -0.33172E-03   528   0.401E-01    0.659E-02
DAV:   3    -0.615116949212E+02    0.77488E-04   -0.30349E-04   352   0.123E-01
  65 F= -.61511695E+02 E0= -.61511692E+02  d E =-.105959E-01
 curvature:  -0.60 expect dE=-0.264E-01 dE for cont linesearch -0.250E-05
 trial: gam= 0.71207 g(F)=  0.392E-01 g(S)=  0.508E-02 ort =-0.106E-02 (trialstep = 0.246E+00)
 search vector abs. value=  0.180E+00
 bond charge predicted
       N       E                     dE             d eps       ncg     rms          rms(c)
DAV:   1    -0.615213421468E+02   -0.95697E-02   -0.10160E+00   384   0.680E+00    0.305E-01
DAV:   2    -0.615209786472E+02    0.36350E-03   -0.19808E-02   552   0.982E-01    0.176E-01
DAV:   3    -0.615202991360E+02    0.67951E-03   -0.23592E-03   616   0.314E-01    0.626E-02
DAV:   4    -0.615202666224E+02    0.32514E-04   -0.23127E-04   432   0.102E-01
  66 F= -.61520267E+02 E0= -.61520264E+02  d E =-.857170E-02
 trial-energy change:   -0.008572  1 .order   -0.008503   -0.010707   -0.006298
 step:   0.5980(harm=  0.5980)  dis= 0.01714  next Energy=   -61.524696 (dE=-0.130E-01)
 bond charge predicted
       N       E                     dE             d eps       ncg     rms          rms(c)
DAV:   1    -0.615266715216E+02   -0.63724E-02   -0.20698E+00   384   0.972E+00    0.434E-01
DAV:   2    -0.615259570572E+02    0.71446E-03   -0.40451E-02   552   0.139E+00    0.250E-01
DAV:   3    -0.615245570303E+02    0.14000E-02   -0.49094E-03   616   0.458E-01    0.874E-02
DAV:   4    -0.615244929667E+02    0.64064E-04   -0.48674E-04   512   0.148E-01
  67 F= -.61524493E+02 E0= -.61524491E+02  d E =-.127980E-01
 curvature:  -1.24 expect dE=-0.368E-01 dE for cont linesearch -0.607E-05
 trial: gam= 0.65857 g(F)=  0.113E-01 g(S)=  0.185E-01 ort =-0.939E-03 (trialstep = 0.317E+00)
 search vector abs. value=  0.106E+00
 bond charge predicted
       N       E                     dE             d eps       ncg     rms          rms(c)
DAV:   1    -0.615322668344E+02   -0.77098E-02   -0.91359E-01   384   0.677E+00    0.318E-01
DAV:   2    -0.615318766050E+02    0.39023E-03   -0.18234E-02   576   0.879E-01    0.187E-01
DAV:   3    -0.615311782920E+02    0.69831E-03   -0.19686E-03   560   0.299E-01    0.689E-02
DAV:   4    -0.615311399830E+02    0.38309E-04   -0.23674E-04   392   0.106E-01
  68 F= -.61531140E+02 E0= -.61531138E+02  d E =-.664702E-02
 trial-energy change:   -0.006647  1 .order   -0.006660   -0.009234   -0.004087
 step:   0.5680(harm=  0.5680)  dis= 0.01350  next Energy=   -61.532775 (dE=-0.828E-02)
 bond charge predicted
       N       E                     dE             d eps       ncg     rms          rms(c)
DAV:   1    -0.615338374468E+02   -0.26592E-02   -0.57596E-01   384   0.537E+00    0.253E-01
DAV:   2    -0.615335786846E+02    0.25876E-03   -0.11493E-02   576   0.697E-01    0.149E-01
DAV:   3    -0.615331383405E+02    0.44034E-03   -0.12633E-03   568   0.239E-01    0.549E-02
DAV:   4    -0.615331182299E+02    0.20111E-04   -0.14306E-04   304   0.846E-02
  69 F= -.61533118E+02 E0= -.61533117E+02  d E =-.862526E-02
 curvature:  -1.04 expect dE=-0.340E-01 dE for cont linesearch -0.168E-04
 trial: gam= 1.00033 g(F)=  0.315E-01 g(S)=  0.127E-02 ort = 0.132E-02 (trialstep = 0.275E+00)
 search vector abs. value=  0.142E+00
 bond charge predicted
       N       E                     dE             d eps       ncg     rms          rms(c)
DAV:   1    -0.615397933861E+02   -0.66550E-02   -0.93695E-01   384   0.698E+00    0.344E-01
DAV:   2    -0.615389637809E+02    0.82961E-03   -0.21066E-02   560   0.960E-01    0.196E-01
DAV:   3    -0.615380997035E+02    0.86408E-03   -0.28736E-03   488   0.340E-01    0.770E-02
DAV:   4    -0.615380618172E+02    0.37886E-04   -0.32524E-04   440   0.123E-01
  70 F= -.61538062E+02 E0= -.61538060E+02  d E =-.494359E-02
 trial-energy change:   -0.004944  1 .order   -0.004869   -0.009383   -0.000356
 step:   0.2860(harm=  0.2860)  dis= 0.00808  next Energy=   -61.537995 (dE=-0.488E-02)
 bond charge predicted
       N       E                     dE             d eps       ncg     rms          rms(c)
DAV:   1    -0.615380815814E+02    0.18122E-04   -0.15016E-03   408   0.279E-01    0.195E-02
DAV:   2    -0.615380879819E+02   -0.64005E-05   -0.35023E-05   344   0.442E-02
  71 F= -.61538088E+02 E0= -.61538086E+02  d E =-.496975E-02
 curvature:  -0.60 expect dE=-0.805E-02 dE for cont linesearch -0.586E-06
 trial: gam= 0.52170 g(F)=  0.980E-02 g(S)=  0.373E-02 ort = 0.374E-03 (trialstep = 0.277E+00)
 search vector abs. value=  0.526E-01
 bond charge predicted
       N       E                     dE             d eps       ncg     rms          rms(c)
DAV:   1    -0.615419811580E+02   -0.38996E-02   -0.29604E-01   384   0.387E+00    0.214E-01
DAV:   2    -0.615413650455E+02    0.61611E-03   -0.61278E-03   544   0.523E-01    0.116E-01
DAV:   3    -0.615410534189E+02    0.31163E-03   -0.11151E-03   480   0.195E-01    0.469E-02
DAV:   4    -0.615410368622E+02    0.16557E-04   -0.11010E-04   208   0.734E-02
  72 F= -.61541037E+02 E0= -.61541035E+02  d E =-.294888E-02
 trial-energy change:   -0.002949  1 .order   -0.002991   -0.003806   -0.002176
 step:   0.6475(harm=  0.6475)  dis= 0.01047  next Energy=   -61.542531 (dE=-0.444E-02)
 bond charge predicted
       N       E                     dE             d eps       ncg     rms          rms(c)
DAV:   1    -0.615442609436E+02   -0.32075E-02   -0.52894E-01   384   0.517E+00    0.287E-01
DAV:   2    -0.615431384396E+02    0.11225E-02   -0.10959E-02   544   0.700E-01    0.156E-01
DAV:   3    -0.615425721292E+02    0.56631E-03   -0.20985E-03   488   0.268E-01    0.632E-02
DAV:   4    -0.615425406297E+02    0.31500E-04   -0.22079E-04   296   0.102E-01
  73 F= -.61542541E+02 E0= -.61542539E+02  d E =-.445265E-02
 curvature:  -1.24 expect dE=-0.205E-01 dE for cont linesearch -0.781E-05
 trial: gam= 1.07933 g(F)=  0.153E-01 g(S)=  0.123E-02 ort = 0.575E-03 (trialstep = 0.234E+00)
 search vector abs. value=  0.790E-01
 bond charge predicted
       N       E                     dE             d eps       ncg     rms          rms(c)
DAV:   1    -0.615467250909E+02   -0.41530E-02   -0.31371E-01   384   0.396E+00    0.220E-01
DAV:   2    -0.615460467145E+02    0.67838E-03   -0.65978E-03   576   0.555E-01    0.121E-01
DAV:   3    -0.615456778214E+02    0.36889E-03   -0.12421E-03   488   0.206E-01    0.443E-02
DAV:   4    -0.615456702227E+02    0.75986E-05   -0.12896E-04   240   0.796E-02
  74 F= -.61545670E+02 E0= -.61545669E+02  d E =-.312959E-02
 trial-energy change:   -0.003130  1 .order   -0.003190   -0.004005   -0.002375
 step:   0.5745(harm=  0.5745)  dis= 0.00853  next Energy=   -61.547461 (dE=-0.492E-02)
 bond charge predicted
       N       E                     dE             d eps       ncg     rms          rms(c)
DAV:   1    -0.615497094169E+02   -0.40316E-02   -0.66685E-01   384   0.577E+00    0.321E-01
DAV:   2    -0.615482867541E+02    0.14227E-02   -0.14041E-02   552   0.807E-01    0.174E-01
DAV:   3    -0.615475039876E+02    0.78277E-03   -0.26203E-03   528   0.301E-01    0.644E-02
DAV:   4    -0.615474823506E+02    0.21637E-04   -0.29594E-04   440   0.114E-01
  75 F= -.61547482E+02 E0= -.61547481E+02  d E =-.494172E-02
 curvature:  -1.32 expect dE=-0.255E-01 dE for cont linesearch -0.180E-04
 trial: gam= 1.17210 g(F)=  0.170E-01 g(S)=  0.219E-02 ort = 0.103E-02 (trialstep = 0.183E+00)
 search vector abs. value=  0.130E+00
 bond charge predicted
       N       E                     dE             d eps       ncg     rms          rms(c)
DAV:   1    -0.615514798383E+02   -0.39759E-02   -0.31377E-01   384   0.393E+00    0.221E-01
DAV:   2    -0.615508164474E+02    0.66339E-03   -0.63161E-03   536   0.539E-01    0.122E-01
DAV:   3    -0.615504210760E+02    0.39537E-03   -0.10892E-03   472   0.196E-01    0.405E-02
DAV:   4    -0.615504297990E+02   -0.87229E-05   -0.10467E-04   296   0.708E-02
  76 F= -.61550430E+02 E0= -.61550429E+02  d E =-.294745E-02
 trial-energy change:   -0.002947  1 .order   -0.003011   -0.003744   -0.002278
 step:   0.4680(harm=  0.4680)  dis= 0.00859  next Energy=   -61.552265 (dE=-0.478E-02)
 bond charge predicted
       N       E                     dE             d eps       ncg     rms          rms(c)
DAV:   1    -0.615547533567E+02   -0.43323E-02   -0.75889E-01   384   0.611E+00    0.342E-01
DAV:   2    -0.615532189397E+02    0.15344E-02   -0.15294E-02   528   0.837E-01    0.186E-01
DAV:   3    -0.615522569288E+02    0.96201E-03   -0.25566E-03   480   0.300E-01    0.620E-02
DAV:   4    -0.615522611281E+02   -0.41993E-05   -0.27077E-04   448   0.110E-01
  77 F= -.61552261E+02 E0= -.61552260E+02  d E =-.477878E-02
 curvature:  -1.49 expect dE=-0.369E-01 dE for cont linesearch -0.169E-04
 trial: gam= 1.29924 g(F)=  0.218E-01 g(S)=  0.296E-02 ort = 0.122E-02 (trialstep = 0.126E+00)
 search vector abs. value=  0.248E+00
 bond charge predicted
       N       E                     dE             d eps       ncg     rms          rms(c)
DAV:   1    -0.615559512377E+02   -0.36943E-02   -0.28134E-01   384   0.372E+00    0.212E-01
DAV:   2    -0.615553568170E+02    0.59442E-03   -0.54263E-03   536   0.503E-01    0.117E-01
DAV:   3    -0.615549982109E+02    0.35861E-03   -0.91109E-04   496   0.187E-01    0.377E-02
DAV:   4    -0.615550244966E+02   -0.26286E-04   -0.95086E-05   296   0.673E-02
  78 F= -.61555024E+02 E0= -.61555023E+02  d E =-.276337E-02
 trial-energy change:   -0.002763  1 .order   -0.002796   -0.003322   -0.002271
 step:   0.3990(harm=  0.3990)  dis= 0.01069  next Energy=   -61.557510 (dE=-0.525E-02)
 bond charge predicted
       N       E                     dE             d eps       ncg     rms          rms(c)
DAV:   1    -0.615616944507E+02   -0.66962E-02   -0.13103E+00   384   0.805E+00    0.454E-01
DAV:   2    -0.615590852453E+02    0.26092E-02   -0.25221E-02   504   0.109E+00    0.249E-01
DAV:   3    -0.615573809791E+02    0.17043E-02   -0.40825E-03   496   0.394E-01    0.798E-02
DAV:   4    -0.615573959015E+02   -0.14922E-04   -0.45818E-04   440   0.142E-01
  79 F= -.61557396E+02 E0= -.61557394E+02  d E =-.513477E-02
 curvature:  -1.88 expect dE=-0.166E-01 dE for cont linesearch -0.361E-04
 trial: gam= 0.33973 g(F)=  0.756E-02 g(S)=  0.127E-02 ort = 0.218E-02 (trialstep = 0.181E+00)
 search vector abs. value=  0.389E-01
 bond charge predicted
       N       E                     dE             d eps       ncg     rms          rms(c)
DAV:   1    -0.615591044464E+02   -0.17235E-02   -0.10298E-01   384   0.216E+00    0.113E-01
DAV:   2    -0.615589672884E+02    0.13716E-03   -0.20947E-03   512   0.321E-01    0.650E-02
DAV:   3    -0.615589103972E+02    0.56891E-04   -0.35030E-04   296   0.125E-01
  80 F= -.61558910E+02 E0= -.61558909E+02  d E =-.151450E-02
 trial-energy change:   -0.001514  1 .order   -0.001393   -0.001729   -0.001056
 step:   0.4646(harm=  0.4646)  dis= 0.00552  next Energy=   -61.559618 (dE=-0.222E-02)
 bond charge predicted
       N       E                     dE             d eps       ncg     rms          rms(c)
DAV:   1    -0.615605272159E+02   -0.15599E-02   -0.25493E-01   384   0.339E+00    0.177E-01
DAV:   2    -0.615602069321E+02    0.32028E-03   -0.51453E-03   440   0.504E-01    0.100E-01
DAV:   3    -0.615599167201E+02    0.29021E-03   -0.81901E-04   512   0.185E-01    0.297E-02
DAV:   4    -0.615599823613E+02   -0.65641E-04   -0.10334E-04   312   0.705E-02
  81 F= -.61559982E+02 E0= -.61559981E+02  d E =-.258646E-02
 curvature:  -0.94 expect dE=-0.799E-02 dE for cont linesearch -0.425E-04
 trial: gam= 0.87243 g(F)=  0.751E-02 g(S)=  0.949E-03 ort = 0.132E-02 (trialstep = 0.229E+00)
 search vector abs. value=  0.404E-01
 bond charge predicted
       N       E                     dE             d eps       ncg     rms          rms(c)
DAV:   1    -0.615620102483E+02   -0.20935E-02   -0.20034E-01   384   0.295E+00    0.140E-01
DAV:   2    -0.615619139669E+02    0.96281E-04   -0.41899E-03   488   0.447E-01    0.815E-02
DAV:   3    -0.615617324194E+02    0.18155E-03   -0.46891E-04   448   0.147E-01    0.247E-02
DAV:   4    -0.615617622963E+02   -0.29877E-04   -0.63019E-05   312   0.570E-02
  82 F= -.61561762E+02 E0= -.61561761E+02  d E =-.177993E-02
 trial-energy change:   -0.001780  1 .order   -0.001730   -0.002200   -0.001260
 step:   0.5358(harm=  0.5358)  dis= 0.00615  next Energy=   -61.562558 (dE=-0.258E-02)
 bond charge predicted
       N       E                     dE             d eps       ncg     rms          rms(c)
DAV:   1    -0.615630539094E+02   -0.13215E-02   -0.36030E-01   384   0.396E+00    0.188E-01
DAV:   2    -0.615629026370E+02    0.15127E-03   -0.75494E-03   488   0.600E-01    0.109E-01
DAV:   3    -0.615625548861E+02    0.34775E-03   -0.84772E-04   488   0.196E-01    0.332E-02
DAV:   4    -0.615625753943E+02   -0.20508E-04   -0.93996E-05   296   0.670E-02
  83 F= -.61562575E+02 E0= -.61562574E+02  d E =-.259303E-02
 curvature:  -1.12 expect dE=-0.152E-01 dE for cont linesearch -0.237E-08
 trial: gam= 1.86858 g(F)=  0.116E-01 g(S)=  0.191E-02 ort =-0.922E-05 (trialstep = 0.758E-01)
 search vector abs. value=  0.154E+00
 bond charge predicted
       N       E                     dE             d eps       ncg     rms          rms(c)
DAV:   1    -0.615637004470E+02   -0.11456E-02   -0.84445E-02   384   0.185E+00    0.926E-02
DAV:   2    -0.615636317626E+02    0.68684E-04   -0.16575E-03   496   0.274E-01    0.524E-02
DAV:   3    -0.615635478913E+02    0.83871E-04   -0.19253E-04   264   0.923E-02
  84 F= -.61563548E+02 E0= -.61563547E+02  d E =-.972497E-03
 ZBRENT: can't locate minimum, use default step
 trial-energy change:   -0.000972  1 .order   -0.000945   -0.001027   -0.000863
 step:   0.3034(harm=  0.4754)  dis= 0.00739  next Energy=   -61.565793 (dE=-0.322E-02)
 bond charge predicted
       N       E                     dE             d eps       ncg     rms          rms(c)
DAV:   1    -0.615669388782E+02   -0.33071E-02   -0.75903E-01   384   0.554E+00    0.280E-01
DAV:   2    -0.615663553011E+02    0.58358E-03   -0.14730E-02   464   0.814E-01    0.158E-01
DAV:   3    -0.615654579408E+02    0.89736E-03   -0.18510E-03   544   0.276E-01    0.418E-02
DAV:   4    -0.615655504555E+02   -0.92515E-04   -0.14016E-04   304   0.829E-02
  85 F= -.61565550E+02 E0= -.61565550E+02  d E =-.297506E-02
 curvature:  -2.21 expect dE=-0.243E-01 dE for cont linesearch -0.946E-03
 trial: gam= 0.09726 g(F)=  0.904E-02 g(S)=  0.195E-02 ort = 0.813E-02 (trialstep = 0.121E+00)
 search vector abs. value=  0.140E-01
 bond charge predicted
       N       E                     dE             d eps       ncg     rms          rms(c)
DAV:   1    -0.615668283242E+02   -0.13704E-02   -0.23615E-02   416   0.107E+00    0.523E-02
DAV:   2    -0.615668218629E+02    0.64612E-05   -0.66955E-04   488   0.178E-01
  86 F= -.61566822E+02 E0= -.61566821E+02  d E =-.127141E-02
 trial-energy change:   -0.001271  1 .order   -0.001140   -0.001429   -0.000850
 step:   0.2995(harm=  0.2995)  dis= 0.00320  next Energy=   -61.567314 (dE=-0.176E-02)
 bond charge predicted
       N       E                     dE             d eps       ncg     rms          rms(c)
DAV:   1    -0.615673553637E+02   -0.52704E-03   -0.48373E-02   384   0.154E+00    0.831E-02
DAV:   2    -0.615672946155E+02    0.60748E-04   -0.12866E-03   496   0.249E-01    0.534E-02
DAV:   3    -0.615672330398E+02    0.61576E-04   -0.24443E-04   360   0.984E-02
  87 F= -.61567233E+02 E0= -.61567232E+02  d E =-.168258E-02
 curvature:  -0.18 expect dE=-0.105E-02 dE for cont linesearch -0.354E-04
 trial: gam= 0.00000 g(F)=  0.508E-02 g(S)=  0.826E-03 ort =-0.167E-02 (trialstep = 0.157E+00)
 search vector abs. value=  0.591E-02
 bond charge predicted
       N       E                     dE             d eps       ncg     rms          rms(c)
DAV:   1    -0.615678475785E+02   -0.55296E-03   -0.16743E-02   384   0.928E-01    0.418E-02
DAV:   2    -0.615678571736E+02   -0.95951E-05   -0.48128E-04   440   0.150E-01
  88 F= -.61567857E+02 E0= -.61567856E+02  d E =-.624134E-03
 trial-energy change:   -0.000624  1 .order   -0.000630   -0.000928   -0.000333
 step:   0.2450(harm=  0.2450)  dis= 0.00196  next Energy=   -61.567957 (dE=-0.724E-03)
 bond charge predicted
       N       E                     dE             d eps       ncg     rms          rms(c)
DAV:   1    -0.615679091667E+02   -0.61588E-04   -0.47696E-03   384   0.496E-01    0.293E-02
DAV:   2    -0.615679064615E+02    0.27051E-05   -0.10398E-04   288   0.768E-02
  89 F= -.61567906E+02 E0= -.61567906E+02  d E =-.673422E-03
 curvature:  -0.12 expect dE=-0.363E-03 dE for cont linesearch -0.329E-05
 trial: gam= 0.56953 g(F)=  0.245E-02 g(S)=  0.521E-03 ort =-0.399E-03 (trialstep = 0.175E+00)
 search vector abs. value=  0.443E-02
 reached required accuracy - stopping structural energy minimisation
 writing wavefunctions
Sun Mar  6 20:13:42 CST 2022
