Sun Mar  6 19:51:02 CST 2022
 running on   48 total cores
 distrk:  each k-point on   48 cores,    1 groups
 distr:  one band on   24 cores,    2 groups
 using from now: INCAR     
 vasp.5.3.5 31Mar14 (build Jan 11 2016 19:50:55) complex                        
  
 POSCAR found type information on POSCAR  B  C  Na
 POSCAR found :  3 types and       9 ions
 scaLAPACK will be used

 ----------------------------------------------------------------------------- 
|                                                                             |
|           W    W    AA    RRRRR   N    N  II  N    N   GGGG   !!!           |
|           W    W   A  A   R    R  NN   N  II  NN   N  G    G  !!!           |
|           W    W  A    A  R    R  N N  N  II  N N  N  G       !!!           |
|           W WW W  AAAAAA  RRRRR   N  N N  II  N  N N  G  GGG   !            |
|           WW  WW  A    A  R   R   N   NN  II  N   NN  G    G                |
|           W    W  A    A  R    R  N    N  II  N    N   GGGG   !!!           |
|                                                                             |
|      For optimal performance we recommend to set                            |
|        NCORE= 4 - approx SQRT( number of cores)                             |
|      NCORE specifies how many cores store one orbital (NPAR=cpu/NCORE).     |
|      This setting can  greatly improve the performance of VASP for DFT.     |
|      The default, NPAR=number of cores might be grossly inefficient         |
|      on modern multi-core architectures or massively parallel machines.     |
|      Do your own testing !!!!                                               |
|      Unfortunately you need to use the default for GW and RPA calculations. |
|      (for HF NCORE is supported but not extensively tested yet)             |
|                                                                             |
 ----------------------------------------------------------------------------- 

 LDA part: xc-table for Pade appr. of Perdew
 POSCAR, INCAR and KPOINTS ok, starting setup
 WARNING: small aliasing (wrap around) errors must be expected
 FFT: planning ...
 WAVECAR not read
 entering main loop
       N       E                     dE             d eps       ncg     rms          rms(c)
DAV:   1     0.266836623477E+03    0.26684E+03   -0.11699E+04   480   0.829E+02
DAV:   2    -0.319210173388E+01   -0.27003E+03   -0.26112E+03   576   0.224E+02
DAV:   3    -0.648112603383E+02   -0.61619E+02   -0.61283E+02   472   0.107E+02
DAV:   4    -0.680526121714E+02   -0.32414E+01   -0.32140E+01   536   0.322E+01
DAV:   5    -0.681403566803E+02   -0.87745E-01   -0.87473E-01   488   0.511E+00    0.130E+01
DAV:   6    -0.615737195774E+02    0.65666E+01   -0.13277E+01   480   0.250E+01    0.688E+00
DAV:   7    -0.599095209940E+02    0.16642E+01   -0.53885E+00   544   0.119E+01    0.320E+00
DAV:   8    -0.596012376427E+02    0.30828E+00   -0.88548E-01   576   0.455E+00    0.138E+00
DAV:   9    -0.594845729373E+02    0.11666E+00   -0.14244E-01   528   0.181E+00    0.506E-01
DAV:  10    -0.594423764725E+02    0.42196E-01   -0.40242E-02   528   0.980E-01    0.280E-01
DAV:  11    -0.594209312912E+02    0.21445E-01   -0.17385E-02   528   0.591E-01    0.175E-01
DAV:  12    -0.594140152544E+02    0.69160E-02   -0.16369E-02   480   0.479E-01    0.110E-01
DAV:  13    -0.594177105909E+02   -0.36953E-02   -0.19576E-03   448   0.257E-01    0.621E-02
DAV:  14    -0.594198866111E+02   -0.21760E-02   -0.16658E-03   400   0.125E-01    0.426E-02
DAV:  15    -0.594236934045E+02   -0.38068E-02   -0.14835E-03   384   0.133E-01    0.318E-02
DAV:  16    -0.594259170293E+02   -0.22236E-02   -0.10860E-03   352   0.741E-02    0.150E-02
DAV:  17    -0.594268324898E+02   -0.91546E-03   -0.31683E-04   320   0.517E-02    0.922E-03
DAV:  18    -0.594273684193E+02   -0.53593E-03   -0.17584E-04   304   0.335E-02    0.541E-03
DAV:  19    -0.594275336667E+02   -0.16525E-03   -0.45471E-05   288   0.220E-02    0.243E-03
DAV:  20    -0.594275891575E+02   -0.55491E-04   -0.14377E-05   304   0.122E-02
   1 F= -.59427589E+02 E0= -.59414933E+02  d E =-.594276E+02
 curvature:   0.00 expect dE= 0.000E+00 dE for cont linesearch  0.000E+00
 trial: gam= 0.00000 g(F)=  0.129E+01 g(S)=  0.274E+00 ort = 0.000E+00 (trialstep = 0.100E+01)
 search vector abs. value=  0.156E+01
 bond charge predicted
       N       E                     dE             d eps       ncg     rms          rms(c)
DAV:   1    -0.585564758669E+02    0.87106E+00   -0.20240E+02   384   0.113E+02    0.402E+00
DAV:   2    -0.589798783441E+02   -0.42340E+00   -0.75710E+00   528   0.181E+01    0.254E+00
DAV:   3    -0.588674704101E+02    0.11241E+00   -0.33307E-01   560   0.394E+00    0.157E+00
DAV:   4    -0.588208574540E+02    0.46613E-01   -0.14394E-01   512   0.258E+00    0.296E-01
DAV:   5    -0.588208691166E+02   -0.11663E-04   -0.17344E-02   560   0.827E-01    0.143E-01
DAV:   6    -0.588206142157E+02    0.25490E-03   -0.10015E-03   496   0.212E-01    0.690E-02
DAV:   7    -0.588206696177E+02   -0.55402E-04   -0.26552E-04   352   0.979E-02
   2 F= -.58820670E+02 E0= -.58795441E+02  d E =0.606920E+00
 trial-energy change:    0.606920  1 .order    0.486359   -1.561652    2.534370
 step:   0.3415(harm=  0.3813)  dis= 0.04763  next Energy=   -59.689473 (dE=-0.262E+00)
 bond charge predicted
       N       E                     dE             d eps       ncg     rms          rms(c)
DAV:   1    -0.597001503995E+02   -0.87954E+00   -0.78944E+01   384   0.590E+01    0.278E+00
DAV:   2    -0.597588906306E+02   -0.58740E-01   -0.23661E+00   544   0.102E+01    0.162E+00
DAV:   3    -0.596960946930E+02    0.62796E-01   -0.20191E-01   544   0.323E+00    0.647E-01
DAV:   4    -0.596898563180E+02    0.62384E-02   -0.40026E-02   512   0.126E+00    0.233E-01
DAV:   5    -0.596896448061E+02    0.21151E-03   -0.47139E-03   544   0.435E-01    0.105E-01
DAV:   6    -0.596897458307E+02   -0.10102E-03   -0.51758E-04   512   0.136E-01    0.385E-02
DAV:   7    -0.596899094457E+02   -0.16362E-03   -0.90703E-05   360   0.592E-02    0.132E-02
DAV:   8    -0.596900572664E+02   -0.14782E-03   -0.44096E-05   352   0.356E-02    0.692E-03
DAV:   9    -0.596902003171E+02   -0.14305E-03   -0.33670E-05   352   0.265E-02    0.325E-03
DAV:  10    -0.596902788011E+02   -0.78484E-04   -0.22501E-05   336   0.168E-02
   3 F= -.59690279E+02 E0= -.59677700E+02  d E =-.262690E+00
 curvature:  -0.19 expect dE=-0.181E+00 dE for cont linesearch -0.209E-03
 trial: gam= 0.63556 g(F)=  0.909E+00 g(S)=  0.424E-01 ort =-0.414E-01 (trialstep = 0.868E+00)
 search vector abs. value=  0.153E+01
 bond charge predicted
       N       E                     dE             d eps       ncg     rms          rms(c)
DAV:   1    -0.596151615082E+02    0.75039E-01   -0.16329E+02   448   0.955E+01    0.296E+00
DAV:   2    -0.598358996437E+02   -0.22074E+00   -0.48839E+00   512   0.140E+01    0.170E+00
DAV:   3    -0.597656970972E+02    0.70203E-01   -0.37438E-01   496   0.365E+00    0.642E-01
DAV:   4    -0.597582605966E+02    0.74365E-02   -0.28231E-02   496   0.120E+00    0.296E-01
DAV:   5    -0.597566687657E+02    0.15918E-02   -0.62155E-03   496   0.461E-01    0.776E-02
DAV:   6    -0.597565263450E+02    0.14242E-03   -0.76496E-04   512   0.168E-01    0.432E-02
DAV:   7    -0.597565698040E+02   -0.43459E-04   -0.17660E-04   336   0.845E-02
   4 F= -.59756570E+02 E0= -.59733536E+02  d E =-.662910E-01
 trial-energy change:   -0.066291  1 .order   -0.099202   -0.802966    0.604563
 step:   0.4651(harm=  0.4954)  dis= 0.07943  next Energy=   -59.900251 (dE=-0.210E+00)
 bond charge predicted
       N       E                     dE             d eps       ncg     rms          rms(c)
DAV:   1    -0.599094816081E+02   -0.15296E+00   -0.29528E+01   384   0.336E+01    0.148E+00
DAV:   2    -0.599175741398E+02   -0.80925E-02   -0.72654E-01   544   0.549E+00    0.828E-01
DAV:   3    -0.599035017875E+02    0.14072E-01   -0.63472E-02   528   0.163E+00    0.357E-01
DAV:   4    -0.599019946937E+02    0.15071E-02   -0.54255E-03   528   0.462E-01    0.150E-01
DAV:   5    -0.599017380839E+02    0.25661E-03   -0.87846E-04   480   0.176E-01    0.385E-02
DAV:   6    -0.599017997279E+02   -0.61644E-04   -0.11348E-04   384   0.704E-02
   5 F= -.59901800E+02 E0= -.59884048E+02  d E =-.211521E+00
 curvature:  -0.41 expect dE=-0.971E-01 dE for cont linesearch -0.351E-04
 trial: gam= 0.27497 g(F)=  0.172E+00 g(S)=  0.669E-01 ort =-0.115E-01 (trialstep = 0.788E+00)
 search vector abs. value=  0.348E+00
 bond charge predicted
       N       E                     dE             d eps       ncg     rms          rms(c)
DAV:   1    -0.598651561141E+02    0.36582E-01   -0.26400E+01   384   0.340E+01    0.135E+00
DAV:   2    -0.598866088076E+02   -0.21453E-01   -0.72510E-01   544   0.572E+00    0.834E-01
DAV:   3    -0.598719597033E+02    0.14649E-01   -0.85394E-02   496   0.197E+00    0.293E-01
DAV:   4    -0.598708006978E+02    0.11590E-02   -0.11517E-02   512   0.648E-01    0.140E-01
DAV:   5    -0.598706903096E+02    0.11039E-03   -0.14645E-03   512   0.218E-01    0.481E-02
DAV:   6    -0.598706945387E+02   -0.42291E-05   -0.17515E-04   352   0.781E-02
   6 F= -.59870695E+02 E0= -.59846060E+02  d E =0.311052E-01
 trial-energy change:    0.031105  1 .order    0.034238   -0.185529    0.254004
 step:   0.3407(harm=  0.3325)  dis= 0.02538  next Energy=   -59.942183 (dE=-0.404E-01)
 bond charge predicted
       N       E                     dE             d eps       ncg     rms          rms(c)
DAV:   1    -0.599422101379E+02   -0.71520E-01   -0.84087E+00   384   0.190E+01    0.755E-01
DAV:   2    -0.599471585746E+02   -0.49484E-02   -0.22716E-01   528   0.307E+00    0.482E-01
DAV:   3    -0.599430665396E+02    0.40920E-02   -0.21132E-02   496   0.966E-01    0.214E-01
DAV:   4    -0.599426222535E+02    0.44429E-03   -0.32317E-03   464   0.334E-01    0.877E-02
DAV:   5    -0.599425512903E+02    0.70963E-04   -0.45034E-04   480   0.129E-01
   7 F= -.59942551E+02 E0= -.59921771E+02  d E =-.407516E-01
 curvature:  -0.25 expect dE=-0.322E-01 dE for cont linesearch -0.719E-06
 trial: gam= 0.55959 g(F)=  0.118E+00 g(S)=  0.131E-01 ort = 0.101E-02 (trialstep = 0.698E+00)
 search vector abs. value=  0.241E+00
 bond charge predicted
       N       E                     dE             d eps       ncg     rms          rms(c)
DAV:   1    -0.599442839410E+02   -0.16617E-02   -0.13632E+01   384   0.242E+01    0.982E-01
DAV:   2    -0.599512669437E+02   -0.69830E-02   -0.38334E-01   496   0.415E+00    0.585E-01
DAV:   3    -0.599461767985E+02    0.50901E-02   -0.38267E-02   528   0.126E+00    0.338E-01
DAV:   4    -0.599458485171E+02    0.32828E-03   -0.39675E-03   496   0.403E-01    0.174E-01
DAV:   5    -0.599457053585E+02    0.14316E-03   -0.77581E-04   480   0.182E-01    0.283E-02
DAV:   6    -0.599456957129E+02    0.96456E-05   -0.17483E-04   368   0.909E-02
   8 F= -.59945696E+02 E0= -.59920350E+02  d E =-.314442E-02
 trial-energy change:   -0.003144  1 .order   -0.003279   -0.091855    0.085298
 step:   0.3621(harm=  0.3621)  dis= 0.02155  next Energy=   -59.966365 (dE=-0.238E-01)
 bond charge predicted
       N       E                     dE             d eps       ncg     rms          rms(c)
DAV:   1    -0.599666899466E+02   -0.20985E-01   -0.31342E+00   384   0.115E+01    0.465E-01
DAV:   2    -0.599677359721E+02   -0.10460E-02   -0.85212E-02   496   0.194E+00    0.281E-01
DAV:   3    -0.599665363125E+02    0.11997E-02   -0.10058E-02   512   0.622E-01    0.148E-01
DAV:   4    -0.599664619375E+02    0.74375E-04   -0.10295E-03   480   0.204E-01    0.786E-02
DAV:   5    -0.599664375177E+02    0.24420E-04   -0.16557E-04   352   0.881E-02
   9 F= -.59966438E+02 E0= -.59943213E+02  d E =-.238862E-01
 curvature:  -0.33 expect dE=-0.140E-01 dE for cont linesearch -0.969E-06
 trial: gam= 0.36740 g(F)=  0.359E-01 g(S)=  0.619E-02 ort =-0.839E-03 (trialstep = 0.631E+00)
 search vector abs. value=  0.740E-01
 bond charge predicted
       N       E                     dE             d eps       ncg     rms          rms(c)
DAV:   1    -0.599779350790E+02   -0.11473E-01   -0.34802E+00   384   0.119E+01    0.422E-01
DAV:   2    -0.599800734673E+02   -0.21384E-02   -0.78320E-02   480   0.179E+00    0.264E-01
DAV:   3    -0.599789187139E+02    0.11548E-02   -0.50644E-03   544   0.469E-01    0.158E-01
DAV:   4    -0.599786288422E+02    0.28987E-03   -0.11314E-03   496   0.209E-01    0.620E-02
DAV:   5    -0.599786208315E+02    0.80107E-05   -0.14093E-04   368   0.769E-02
  10 F= -.59978621E+02 E0= -.59953798E+02  d E =-.121833E-01
 trial-energy change:   -0.012183  1 .order   -0.012301   -0.026364    0.001762
 step:   0.5915(harm=  0.5915)  dis= 0.01939  next Energy=   -59.978794 (dE=-0.124E-01)
 bond charge predicted
       N       E                     dE             d eps       ncg     rms          rms(c)
DAV:   1    -0.599786769255E+02   -0.48083E-04   -0.13656E-02   384   0.747E-01    0.268E-02
DAV:   2    -0.599787015295E+02   -0.24604E-04   -0.30892E-04   400   0.114E-01
  11 F= -.59978702E+02 E0= -.59953982E+02  d E =-.122640E-01
 curvature:  -0.52 expect dE=-0.141E-01 dE for cont linesearch -0.415E-06
 trial: gam= 0.65460 g(F)=  0.194E-01 g(S)=  0.751E-02 ort = 0.242E-03 (trialstep = 0.623E+00)
 search vector abs. value=  0.590E-01
 bond charge predicted
       N       E                     dE             d eps       ncg     rms          rms(c)
DAV:   1    -0.599971076230E+02   -0.18431E-01   -0.25545E+00   384   0.984E+00    0.520E-01
DAV:   2    -0.599920864102E+02    0.50212E-02   -0.81061E-02   448   0.164E+00    0.297E-01
DAV:   3    -0.599903651958E+02    0.17212E-02   -0.60024E-03   432   0.511E-01    0.161E-01
DAV:   4    -0.599898792311E+02    0.48596E-03   -0.22284E-03   464   0.323E-01    0.489E-02
DAV:   5    -0.599898661652E+02    0.13066E-04   -0.30475E-04   416   0.118E-01
  12 F= -.59989866E+02 E0= -.59965154E+02  d E =-.111646E-01
 trial-energy change:   -0.011165  1 .order   -0.011309   -0.016876   -0.005741
 step:   0.9444(harm=  0.9444)  dis= 0.02681  next Energy=   -59.991491 (dE=-0.128E-01)
 bond charge predicted
       N       E                     dE             d eps       ncg     rms          rms(c)
DAV:   1    -0.599934639965E+02   -0.35848E-02   -0.68193E-01   384   0.507E+00    0.268E-01
DAV:   2    -0.599920456371E+02    0.14184E-02   -0.21047E-02   448   0.835E-01    0.153E-01
DAV:   3    -0.599915863626E+02    0.45927E-03   -0.16238E-03   432   0.262E-01    0.825E-02
DAV:   4    -0.599914758009E+02    0.11056E-03   -0.55324E-04   480   0.161E-01    0.255E-02
DAV:   5    -0.599914962403E+02   -0.20439E-04   -0.67040E-05   272   0.582E-02
  13 F= -.59991496E+02 E0= -.59966627E+02  d E =-.127947E-01
 curvature:  -1.03 expect dE=-0.491E-01 dE for cont linesearch -0.322E-05
 trial: gam= 1.78655 g(F)=  0.391E-01 g(S)=  0.867E-02 ort = 0.430E-03 (trialstep = 0.171E+00)
 search vector abs. value=  0.237E+00
 bond charge predicted
       N       E                     dE             d eps       ncg     rms          rms(c)
DAV:   1    -0.600030990847E+02   -0.11623E-01   -0.68392E-01   384   0.493E+00    0.344E-01
DAV:   2    -0.599999234720E+02    0.31756E-02   -0.25016E-02   448   0.840E-01    0.188E-01
DAV:   3    -0.599991909413E+02    0.73253E-03   -0.19109E-03   448   0.276E-01    0.972E-02
DAV:   4    -0.599989551912E+02    0.23575E-03   -0.78259E-04   448   0.190E-01    0.245E-02
DAV:   5    -0.599989787732E+02   -0.23582E-04   -0.77294E-05   272   0.670E-02
  14 F= -.59998979E+02 E0= -.59974335E+02  d E =-.748253E-02
 ZBRENT: can't locate minimum, use default step
 trial-energy change:   -0.007483  1 .order   -0.007511   -0.008276   -0.006746
 step:   0.6827(harm=  0.9230)  dis= 0.03532  next Energy=   -60.013873 (dE=-0.224E-01)
 bond charge predicted
       N       E                     dE             d eps       ncg     rms          rms(c)
DAV:   1    -0.600513707179E+02   -0.52416E-01   -0.61526E+00   384   0.147E+01    0.106E+00
DAV:   2    -0.600225800663E+02    0.28791E-01   -0.25215E-01   464   0.260E+00    0.587E-01
DAV:   3    -0.600150888561E+02    0.74912E-02   -0.18126E-02   448   0.856E-01    0.309E-01
DAV:   4    -0.600126671476E+02    0.24217E-02   -0.78694E-03   480   0.602E-01    0.830E-02
DAV:   5    -0.600126711906E+02   -0.40430E-05   -0.11494E-03   464   0.224E-01    0.309E-02
DAV:   6    -0.600127515350E+02   -0.80344E-04   -0.11684E-04   336   0.621E-02
  15 F= -.60012752E+02 E0= -.59988691E+02  d E =-.212553E-01
 curvature:  -2.03 expect dE=-0.741E-01 dE for cont linesearch -0.217E-02
 ZBRENT: increasing intervall
 opt :   1.7069  next Energy=   -60.004883 (dE=-0.134E-01)
 bond charge predicted
       N       E                     dE             d eps       ncg     rms          rms(c)
DAV:   1    -0.601662006547E+02   -0.15353E+00   -0.24791E+01   384   0.296E+01    0.220E+00
DAV:   2    -0.600468781517E+02    0.11932E+00   -0.12071E+00   480   0.555E+00    0.120E+00
DAV:   3    -0.600141912919E+02    0.32687E-01   -0.76497E-02   448   0.183E+00    0.641E-01
DAV:   4    -0.600038674013E+02    0.10324E-01   -0.36006E-02   480   0.118E+00    0.203E-01
DAV:   5    -0.600033085658E+02    0.55884E-03   -0.75472E-03   448   0.483E-01    0.720E-02
DAV:   6    -0.600034060808E+02   -0.97515E-04   -0.81647E-04   496   0.156E-01
  16 F= -.60003406E+02 E0= -.59980950E+02  d E =-.119098E-01
 curvature:   7.37 expect dE= 0.173E+01 dE for cont linesearch  0.322E-01
 ZBRENT: bracketing found
 ZBRENT: interpolating
 opt :   1.0216  next Energy=   -60.015449 (dE=-0.240E-01)
 bond charge predicted
       N       E                     dE             d eps       ncg     rms          rms(c)
DAV:   1    -0.600750467552E+02   -0.71738E-01   -0.11548E+01   384   0.212E+01    0.136E+00
DAV:   2    -0.600284486573E+02    0.46598E-01   -0.36505E-01   480   0.355E+00    0.699E-01
DAV:   3    -0.600175508256E+02    0.10898E-01   -0.36171E-02   432   0.116E+00    0.290E-01
DAV:   4    -0.600159353134E+02    0.16155E-02   -0.52172E-03   480   0.493E-01    0.874E-02
DAV:   5    -0.600157764136E+02    0.15890E-03   -0.68203E-04   480   0.159E-01    0.322E-02
DAV:   6    -0.600157618990E+02    0.14515E-04   -0.13998E-04   320   0.635E-02
  17 F= -.60015762E+02 E0= -.59992247E+02  d E =-.242657E-01
 curvature:  -0.62 expect dE=-0.449E-01 dE for cont linesearch -0.819E-05
 trial: gam= 1.62799 g(F)=  0.563E-01 g(S)=  0.162E-01 ort =-0.177E-02 (trialstep = 0.116E+00)
 search vector abs. value=  0.696E+00
 bond charge predicted
       N       E                     dE             d eps       ncg     rms          rms(c)
DAV:   1    -0.600300316076E+02   -0.14255E-01   -0.90893E-01   384   0.581E+00    0.434E-01
DAV:   2    -0.600249362391E+02    0.50954E-02   -0.35278E-02   464   0.963E-01    0.238E-01
DAV:   3    -0.600238476726E+02    0.10886E-02   -0.29607E-03   448   0.335E-01    0.120E-01
DAV:   4    -0.600235181562E+02    0.32952E-03   -0.10642E-03   480   0.217E-01    0.318E-02
DAV:   5    -0.600234895430E+02    0.28613E-04   -0.11676E-04   320   0.783E-02
  18 F= -.60023490E+02 E0= -.60000072E+02  d E =-.772764E-02
 ZBRENT: can't locate minimum, use default step
 trial-energy change:   -0.007728  1 .order   -0.007525   -0.008100   -0.006951
 step:   0.4651(harm=  0.8201)  dis= 0.03752  next Energy=   -60.044323 (dE=-0.286E-01)
 bond charge predicted
       N       E                     dE             d eps       ncg     rms          rms(c)
DAV:   1    -0.601015836335E+02   -0.78065E-01   -0.81633E+00   384   0.172E+01    0.133E+00
DAV:   2    -0.600538336166E+02    0.47750E-01   -0.36407E-01   480   0.298E+00    0.750E-01
DAV:   3    -0.600415814749E+02    0.12252E-01   -0.28984E-02   432   0.105E+00    0.387E-01
DAV:   4    -0.600377631905E+02    0.38183E-02   -0.11730E-02   480   0.727E-01    0.112E-01
DAV:   5    -0.600376547875E+02    0.10840E-03   -0.20851E-03   480   0.288E-01    0.417E-02
DAV:   6    -0.600377188278E+02   -0.64040E-04   -0.22117E-04   336   0.829E-02
  19 F= -.60037719E+02 E0= -.60014747E+02  d E =-.219569E-01
 curvature:  -3.06 expect dE=-0.245E+00 dE for cont linesearch -0.293E-02
 ZBRENT: increasing intervall
 opt :   1.1628  next Energy=   -60.032048 (dE=-0.163E-01)
 bond charge predicted
       N       E                     dE             d eps       ncg     rms          rms(c)
DAV:   1    -0.603053290662E+02   -0.26767E+00   -0.33009E+01   384   0.347E+01    0.278E+00
DAV:   2    -0.601029306276E+02    0.20240E+00   -0.17715E+00   464   0.640E+00    0.154E+00
DAV:   3    -0.600494502784E+02    0.53480E-01   -0.12444E-01   416   0.225E+00    0.811E-01
DAV:   4    -0.600333975820E+02    0.16053E-01   -0.56678E-02   496   0.147E+00    0.274E-01
DAV:   5    -0.600324188100E+02    0.97877E-03   -0.16636E-02   480   0.671E-01    0.117E-01
DAV:   6    -0.600322057583E+02    0.21305E-03   -0.22822E-03   496   0.222E-01    0.393E-02
DAV:   7    -0.600325857024E+02   -0.37994E-03   -0.27420E-04   368   0.858E-02    0.198E-02
DAV:   8    -0.600330241722E+02   -0.43847E-03   -0.13495E-04   344   0.539E-02    0.121E-02
DAV:   9    -0.600334394399E+02   -0.41527E-03   -0.17418E-04   336   0.512E-02    0.844E-03
DAV:  10    -0.600336616614E+02   -0.22222E-03   -0.64949E-05   352   0.296E-02    0.513E-03
DAV:  11    -0.600337523382E+02   -0.90677E-04   -0.24162E-05   328   0.191E-02
  20 F= -.60033752E+02 E0= -.60011924E+02  d E =-.179904E-01
 curvature:   5.92 expect dE= 0.266E+01 dE for cont linesearch  0.138E-01
 ZBRENT: bracketing found
 ZBRENT: interpolating
 opt :   0.7379  next Energy=   -60.041242 (dE=-0.255E-01)
 bond charge predicted
       N       E                     dE             d eps       ncg     rms          rms(c)
DAV:   1    -0.601280363432E+02   -0.94375E-01   -0.12837E+01   384   0.229E+01    0.157E+00
DAV:   2    -0.600616176983E+02    0.66419E-01   -0.40488E-01   464   0.379E+00    0.810E-01
DAV:   3    -0.600440471866E+02    0.17571E-01   -0.56066E-02   456   0.135E+00    0.302E-01
DAV:   4    -0.600419228719E+02    0.21243E-02   -0.56457E-03   488   0.487E-01    0.109E-01
DAV:   5    -0.600415457172E+02    0.37715E-03   -0.12106E-03   504   0.176E-01    0.449E-02
DAV:   6    -0.600415110078E+02    0.34709E-04   -0.33423E-04   336   0.871E-02
  21 F= -.60041511E+02 E0= -.60019246E+02  d E =-.257491E-01
 curvature:  -1.52 expect dE=-0.257E+00 dE for cont linesearch -0.581E-04
 trial: gam= 2.34782 g(F)=  0.156E+00 g(S)=  0.134E-01 ort =-0.517E-02 (trialstep = 0.421E-01)
 search vector abs. value=  0.398E+01
 bond charge predicted
       N       E                     dE             d eps       ncg     rms          rms(c)
DAV:   1    -0.600534945035E+02   -0.11949E-01   -0.68887E-01   384   0.513E+00    0.383E-01
DAV:   2    -0.600496172305E+02    0.38773E-02   -0.25113E-02   480   0.834E-01    0.210E-01
DAV:   3    -0.600487491862E+02    0.86804E-03   -0.24883E-03   448   0.306E-01    0.101E-01
DAV:   4    -0.600486180272E+02    0.13116E-03   -0.68151E-04   488   0.172E-01    0.314E-02
DAV:   5    -0.600486408993E+02   -0.22872E-04   -0.91753E-05   320   0.640E-02
  22 F= -.60048641E+02 E0= -.60026388E+02  d E =-.712989E-02
 ZBRENT: can't locate minimum, use default step
 trial-energy change:   -0.007130  1 .order   -0.006505   -0.006609   -0.006401
 step:   0.1682(harm=  1.3383)  dis= 0.03073  next Energy=   -60.146652 (dE=-0.105E+00)
 bond charge predicted
       N       E                     dE             d eps       ncg     rms          rms(c)
DAV:   1    -0.601162466191E+02   -0.67629E-01   -0.61847E+00   384   0.152E+01    0.117E+00
DAV:   2    -0.600773233272E+02    0.38923E-01   -0.25010E-01   480   0.255E+00    0.647E-01
DAV:   3    -0.600675457662E+02    0.97776E-02   -0.23044E-02   400   0.933E-01    0.324E-01
DAV:   4    -0.600648066671E+02    0.27391E-02   -0.74981E-03   480   0.572E-01    0.102E-01
DAV:   5    -0.600646886348E+02    0.11803E-03   -0.12501E-03   448   0.222E-01    0.329E-02
DAV:   6    -0.600647528830E+02   -0.64248E-04   -0.12129E-04   320   0.650E-02
  23 F= -.60064753E+02 E0= -.60042955E+02  d E =-.232419E-01
 curvature:  -3.14 expect dE=-0.222E+00 dE for cont linesearch -0.965E-02
 ZBRENT: increasing intervall
 opt :   0.4206  next Energy=   -60.082167 (dE=-0.407E-01)
 bond charge predicted
       N       E                     dE             d eps       ncg     rms          rms(c)
DAV:   1    -0.602980056950E+02   -0.23332E+00   -0.24930E+01   384   0.305E+01    0.242E+00
DAV:   2    -0.601339324383E+02    0.16407E+00   -0.11640E+00   480   0.540E+00    0.133E+00
DAV:   3    -0.600921405702E+02    0.41792E-01   -0.94193E-02   400   0.194E+00    0.684E-01
DAV:   4    -0.600802230742E+02    0.11917E-01   -0.33156E-02   480   0.116E+00    0.221E-01
DAV:   5    -0.600796694055E+02    0.55367E-03   -0.71393E-03   464   0.494E-01    0.796E-02
DAV:   6    -0.600797450974E+02   -0.75692E-04   -0.93609E-04   480   0.155E-01
  24 F= -.60079745E+02 E0= -.60059096E+02  d E =-.382341E-01
 curvature:  -5.67 expect dE=-0.249E+00 dE for cont linesearch -0.103E-02
 ZBRENT: extrapolating
 opt :   0.5016  next Energy=   -60.080834 (dE=-0.393E-01)
 bond charge predicted
       N       E                     dE             d eps       ncg     rms          rms(c)
DAV:   1    -0.601036631954E+02   -0.23994E-01   -0.26133E+00   384   0.997E+00    0.769E-01
DAV:   2    -0.600858004423E+02    0.17863E-01   -0.10235E-01   464   0.165E+00    0.412E-01
DAV:   3    -0.600815479099E+02    0.42525E-02   -0.97822E-03   424   0.610E-01    0.200E-01
DAV:   4    -0.600805513570E+02    0.99655E-03   -0.27121E-03   480   0.339E-01    0.642E-02
DAV:   5    -0.600806802367E+02   -0.12888E-03   -0.43233E-04   464   0.131E-01    0.207E-02
DAV:   6    -0.600808301930E+02   -0.14996E-03   -0.63317E-05   288   0.455E-02    0.117E-02
DAV:   7    -0.600810617860E+02   -0.23159E-03   -0.63440E-05   320   0.363E-02    0.711E-03
DAV:   8    -0.600812797587E+02   -0.21797E-03   -0.58340E-05   304   0.295E-02    0.496E-03
DAV:   9    -0.600814284506E+02   -0.14869E-03   -0.47614E-05   328   0.255E-02    0.289E-03
DAV:  10    -0.600814654000E+02   -0.36949E-04   -0.69948E-06   288   0.132E-02
  25 F= -.60081465E+02 E0= -.60061186E+02  d E =-.399544E-01
 curvature:  -6.00 expect dE=-0.398E+00 dE for cont linesearch -0.334E-03
 trial: gam= 0.58437 g(F)=  0.596E-01 g(S)=  0.669E-02 ort =-0.149E-01 (trialstep = 0.134E+00)
 search vector abs. value=  0.141E+01
 bond charge predicted
       N       E                     dE             d eps       ncg     rms          rms(c)
DAV:   1    -0.601109384943E+02   -0.29510E-01   -0.23634E+00   384   0.958E+00    0.769E-01
DAV:   2    -0.600931891819E+02    0.17749E-01   -0.94659E-02   416   0.159E+00    0.408E-01
DAV:   3    -0.600892294967E+02    0.39597E-02   -0.94400E-03   424   0.609E-01    0.191E-01
DAV:   4    -0.600882208375E+02    0.10087E-02   -0.24223E-03   480   0.321E-01    0.579E-02
DAV:   5    -0.600881859912E+02    0.34846E-04   -0.32718E-04   344   0.121E-01
  26 F= -.60088186E+02 E0= -.60068595E+02  d E =-.672059E-02
 ZBRENT: can't locate minimum, use default step
 trial-energy change:   -0.006721  1 .order   -0.007006   -0.007713   -0.006299
 step:   0.5359(harm=  0.7306)  dis= 0.05220  next Energy=   -60.102497 (dE=-0.210E-01)
 bond charge predicted
       N       E                     dE             d eps       ncg     rms          rms(c)
DAV:   1    -0.603179624235E+02   -0.22974E+00   -0.21377E+01   384   0.285E+01    0.239E+00
DAV:   2    -0.601507237680E+02    0.16724E+00   -0.10227E+00   464   0.504E+00    0.129E+00
DAV:   3    -0.601117938744E+02    0.38930E-01   -0.87293E-02   400   0.188E+00    0.642E-01
DAV:   4    -0.601007986584E+02    0.10995E-01   -0.28825E-02   480   0.109E+00    0.200E-01
DAV:   5    -0.601003190181E+02    0.47964E-03   -0.54749E-03   480   0.443E-01    0.682E-02
DAV:   6    -0.601004783130E+02   -0.15929E-03   -0.68604E-04   496   0.139E-01    0.308E-02
DAV:   7    -0.601008495300E+02   -0.37122E-03   -0.16630E-04   336   0.654E-02    0.152E-02
DAV:   8    -0.601012267626E+02   -0.37723E-03   -0.12113E-04   320   0.473E-02    0.101E-02
DAV:   9    -0.601015675626E+02   -0.34080E-03   -0.14683E-04   328   0.467E-02    0.640E-03
DAV:  10    -0.601017030249E+02   -0.13546E-03   -0.46184E-05   336   0.261E-02    0.359E-03
DAV:  11    -0.601017577979E+02   -0.54773E-04   -0.16573E-05   336   0.183E-02
  27 F= -.60101758E+02 E0= -.60083871E+02  d E =-.202924E-01
 curvature:  -7.99 expect dE=-0.419E+00 dE for cont linesearch -0.153E-02
 ZBRENT: increasing intervall
 opt :   1.3397  next Energy=   -60.090373 (dE=-0.891E-02)
 bond charge predicted
       N       E                     dE             d eps       ncg     rms          rms(c)
DAV:   1    -0.610209438548E+02   -0.91924E+00   -0.88241E+01   384   0.584E+01    0.506E+00
DAV:   2    -0.602893745767E+02    0.73157E+00   -0.49602E+00   480   0.111E+01    0.264E+00
DAV:   3    -0.601377123819E+02    0.15166E+00   -0.39448E-01   416   0.413E+00    0.130E+00
DAV:   4    -0.600957064040E+02    0.42006E-01   -0.10569E-01   456   0.197E+00    0.433E-01
DAV:   5    -0.600923451894E+02    0.33612E-02   -0.19460E-02   512   0.799E-01    0.130E-01
DAV:   6    -0.600926972250E+02   -0.35204E-03   -0.24685E-03   504   0.290E-01    0.613E-02
DAV:   7    -0.600933864102E+02   -0.68919E-03   -0.54150E-04   368   0.114E-01    0.319E-02
DAV:   8    -0.600941609793E+02   -0.77457E-03   -0.33378E-04   368   0.817E-02    0.177E-02
DAV:   9    -0.600947397863E+02   -0.57881E-03   -0.32341E-04   384   0.721E-02    0.126E-02
DAV:  10    -0.600950459850E+02   -0.30620E-03   -0.15898E-04   352   0.456E-02    0.699E-03
DAV:  11    -0.600951389199E+02   -0.92935E-04   -0.50253E-05   352   0.270E-02
  28 F= -.60095139E+02 E0= -.60081264E+02  d E =-.136735E-01
 curvature:  59.45 expect dE= 0.154E+02 dE for cont linesearch  0.737E-01
 ZBRENT: bracketing found
 ZBRENT: interpolating
 opt :   0.7627  next Energy=   -60.103620 (dE=-0.222E-01)
 bond charge predicted
       N       E                     dE             d eps       ncg     rms          rms(c)
DAV:   1    -0.605136317813E+02   -0.41859E+00   -0.49115E+01   384   0.477E+01    0.334E+00
DAV:   2    -0.602196619191E+02    0.29397E+00   -0.15169E+00   416   0.817E+00    0.175E+00
DAV:   3    -0.601184801082E+02    0.10118E+00   -0.54804E-01   464   0.370E+00    0.622E-01
DAV:   4    -0.601080925151E+02    0.10388E-01   -0.53680E-02   464   0.109E+00    0.305E-01
DAV:   5    -0.601052061192E+02    0.28864E-02   -0.59419E-03   512   0.436E-01    0.123E-01
DAV:   6    -0.601045555114E+02    0.65061E-03   -0.16640E-03   512   0.208E-01    0.461E-02
DAV:   7    -0.601044841750E+02    0.71336E-04   -0.21848E-04   376   0.863E-02
  29 F= -.60104484E+02 E0= -.60088041E+02  d E =-.230188E-01
 curvature:  -1.50 expect dE=-0.121E+00 dE for cont linesearch -0.104E-03
 trial: gam= 1.05029 g(F)=  0.755E-01 g(S)=  0.480E-02 ort =-0.988E-02 (trialstep = 0.227E+00)
 search vector abs. value=  0.161E+01
 bond charge predicted
       N       E                     dE             d eps       ncg     rms          rms(c)
DAV:   1    -0.602000237047E+02   -0.95468E-01   -0.75740E+00   384   0.173E+01    0.146E+00
DAV:   2    -0.601354674449E+02    0.64556E-01   -0.34620E-01   448   0.294E+00    0.756E-01
DAV:   3    -0.601231490048E+02    0.12318E-01   -0.30132E-02   416   0.114E+00    0.354E-01
DAV:   4    -0.601199864896E+02    0.31625E-02   -0.75474E-03   464   0.582E-01    0.101E-01
DAV:   5    -0.601196896532E+02    0.29684E-03   -0.10753E-03   488   0.212E-01    0.303E-02
DAV:   6    -0.601197321307E+02   -0.42477E-04   -0.11417E-04   336   0.637E-02
  30 F= -.60119732E+02 E0= -.60104434E+02  d E =-.152480E-01
 trial-energy change:   -0.015248  1 .order   -0.013387   -0.015861   -0.010913
 step:   0.7269(harm=  0.7269)  dis= 0.06808  next Energy=   -60.129906 (dE=-0.254E-01)
 bond charge predicted
       N       E                     dE             d eps       ncg     rms          rms(c)
DAV:   1    -0.605544936166E+02   -0.43480E+00   -0.37409E+01   384   0.383E+01    0.335E+00
DAV:   2    -0.602068837952E+02    0.34761E+00   -0.20272E+00   464   0.686E+00    0.173E+00
DAV:   3    -0.601418412445E+02    0.65043E-01   -0.15849E-01   432   0.263E+00    0.841E-01
DAV:   4    -0.601233458512E+02    0.18495E-01   -0.42205E-02   472   0.133E+00    0.242E-01
DAV:   5    -0.601223912164E+02    0.95463E-03   -0.58971E-03   480   0.484E-01    0.742E-02
DAV:   6    -0.601228410376E+02   -0.44982E-03   -0.80726E-04   480   0.166E-01    0.366E-02
DAV:   7    -0.601233312189E+02   -0.49018E-03   -0.17879E-04   304   0.651E-02    0.198E-02
DAV:   8    -0.601239171317E+02   -0.58591E-03   -0.26128E-04   368   0.629E-02    0.121E-02
DAV:   9    -0.601243461511E+02   -0.42902E-03   -0.21898E-04   344   0.579E-02    0.904E-03
DAV:  10    -0.601244531540E+02   -0.10700E-03   -0.47006E-05   360   0.298E-02    0.435E-03
DAV:  11    -0.601245170669E+02   -0.63913E-04   -0.26517E-05   336   0.196E-02
  31 F= -.60124517E+02 E0= -.60112027E+02  d E =-.200329E-01
 curvature:  -8.38 expect dE=-0.102E+01 dE for cont linesearch -0.572E-02
 ZBRENT: interpolating
 opt :   0.5227  next Energy=   -60.127905 (dE=-0.234E-01)
 bond charge predicted
       N       E                     dE             d eps       ncg     rms          rms(c)
DAV:   1    -0.601925543840E+02   -0.68101E-01   -0.64863E+00   384   0.168E+01    0.130E+00
DAV:   2    -0.601421159493E+02    0.50438E-01   -0.20941E-01   400   0.278E+00    0.663E-01
DAV:   3    -0.601288866359E+02    0.13229E-01   -0.59779E-02   496   0.132E+00    0.215E-01
DAV:   4    -0.601276737847E+02    0.12129E-02   -0.60009E-03   448   0.402E-01    0.992E-02
DAV:   5    -0.601273461853E+02    0.32760E-03   -0.84603E-04   512   0.164E-01    0.346E-02
DAV:   6    -0.601273330987E+02    0.13087E-04   -0.15264E-04   320   0.733E-02
  32 F= -.60127333E+02 E0= -.60113917E+02  d E =-.228489E-01
 curvature:  -4.96 expect dE=-0.241E+00 dE for cont linesearch -0.771E-04
 trial: gam= 0.75489 g(F)=  0.421E-01 g(S)=  0.645E-02 ort =-0.501E-02 (trialstep = 0.286E+00)
 search vector abs. value=  0.960E+00
 bond charge predicted
       N       E                     dE             d eps       ncg     rms          rms(c)
DAV:   1    -0.602192478044E+02   -0.91902E-01   -0.68879E+00   384   0.164E+01    0.144E+00
DAV:   2    -0.601544997472E+02    0.64748E-01   -0.28746E-01   448   0.278E+00    0.742E-01
DAV:   3    -0.601411299452E+02    0.13370E-01   -0.35117E-02   456   0.119E+00    0.314E-01
DAV:   4    -0.601385096266E+02    0.26203E-02   -0.48646E-03   464   0.480E-01    0.100E-01
DAV:   5    -0.601382890756E+02    0.22055E-03   -0.77343E-04   464   0.177E-01    0.288E-02
DAV:   6    -0.601383991598E+02   -0.11008E-03   -0.98602E-05   328   0.647E-02    0.140E-02
DAV:   7    -0.601385249187E+02   -0.12576E-03   -0.37983E-05   312   0.357E-02    0.732E-03
DAV:   8    -0.601386500369E+02   -0.12512E-03   -0.26515E-05   304   0.257E-02    0.401E-03
DAV:   9    -0.601387637250E+02   -0.11369E-03   -0.32238E-05   312   0.235E-02    0.281E-03
DAV:  10    -0.601388140978E+02   -0.50373E-04   -0.11430E-05   304   0.140E-02
  33 F= -.60138814E+02 E0= -.60127161E+02  d E =-.114810E-01
 trial-energy change:   -0.011481  1 .order   -0.010648   -0.012811   -0.008486
 step:   0.4775(harm=  0.8471)  dis= 0.03098  next Energy=   -60.141907 (dE=-0.146E-01)
 bond charge predicted
       N       E                     dE             d eps       ncg     rms          rms(c)
DAV:   1    -0.601803627744E+02   -0.41599E-01   -0.31341E+00   384   0.111E+01    0.968E-01
DAV:   2    -0.601503709170E+02    0.29992E-01   -0.12055E-01   384   0.186E+00    0.496E-01
DAV:   3    -0.601438889402E+02    0.64820E-02   -0.19291E-02   488   0.853E-01    0.190E-01
DAV:   4    -0.601429854328E+02    0.90351E-03   -0.18158E-03   448   0.290E-01    0.659E-02
DAV:   5    -0.601429275514E+02    0.57881E-04   -0.28674E-04   328   0.106E-01
  34 F= -.60142928E+02 E0= -.60132556E+02  d E =-.155945E-01
 curvature:  -5.14 expect dE=-0.157E+00 dE for cont linesearch -0.101E-02
 ZBRENT: increasing intervall
 opt :   0.8607  next Energy=   -60.142106 (dE=-0.148E-01)
 bond charge predicted
       N       E                     dE             d eps       ncg     rms          rms(c)
DAV:   1    -0.603000631026E+02   -0.15708E+00   -0.12670E+01   384   0.223E+01    0.199E+00
DAV:   2    -0.601741697514E+02    0.12589E+00   -0.53278E-01   448   0.382E+00    0.102E+00
DAV:   3    -0.601482310632E+02    0.25939E-01   -0.70991E-02   440   0.169E+00    0.417E-01
DAV:   4    -0.601439657794E+02    0.42653E-02   -0.81526E-03   488   0.611E-01    0.140E-01
DAV:   5    -0.601437469656E+02    0.21881E-03   -0.13811E-03   464   0.232E-01    0.408E-02
DAV:   6    -0.601440576653E+02   -0.31070E-03   -0.20199E-04   328   0.946E-02    0.206E-02
DAV:   7    -0.601444029853E+02   -0.34532E-03   -0.12338E-04   320   0.595E-02    0.120E-02
DAV:   8    -0.601447241357E+02   -0.32115E-03   -0.10253E-04   328   0.464E-02    0.698E-03
DAV:   9    -0.601449607374E+02   -0.23660E-03   -0.10575E-04   352   0.417E-02    0.513E-03
DAV:  10    -0.601450369733E+02   -0.76236E-04   -0.24243E-05   352   0.233E-02
  35 F= -.60145037E+02 E0= -.60137096E+02  d E =-.177039E-01
 curvature:   4.16 expect dE= 0.328E+00 dE for cont linesearch  0.377E-03
 trial: gam= 0.00000 g(F)=  0.701E-01 g(S)=  0.881E-02 ort =-0.933E-02 (trialstep = 0.401E+00)
 search vector abs. value=  0.789E-01
 bond charge predicted
       N       E                     dE             d eps       ncg     rms          rms(c)
DAV:   1    -0.601621886160E+02   -0.17228E-01   -0.95495E-01   384   0.677E+00    0.352E-01
DAV:   2    -0.601615471760E+02    0.64144E-03   -0.25307E-02   544   0.104E+00    0.205E-01
DAV:   3    -0.601607164096E+02    0.83077E-03   -0.32915E-03   496   0.346E-01    0.864E-02
DAV:   4    -0.601606290993E+02    0.87310E-04   -0.48821E-04   512   0.141E-01
  36 F= -.60160629E+02 E0= -.60151860E+02  d E =-.155921E-01
 trial-energy change:   -0.015592  1 .order   -0.015641   -0.031620    0.000339
 step:   0.3966(harm=  0.3966)  dis= 0.00582  next Energy=   -60.160679 (dE=-0.156E-01)
 bond charge predicted
       N       E                     dE             d eps       ncg     rms          rms(c)
DAV:   1    -0.601606257734E+02    0.90636E-04   -0.20358E-04   336   0.941E-02    0.109E-02
DAV:   2    -0.601606298114E+02   -0.40380E-05   -0.22361E-05   320   0.367E-02
  37 F= -.60160630E+02 E0= -.60151969E+02  d E =-.155928E-01
 curvature:  -0.20 expect dE=-0.836E-02 dE for cont linesearch -0.348E-06
 trial: gam= 0.53889 g(F)=  0.383E-01 g(S)=  0.387E-02 ort =-0.372E-03 (trialstep = 0.400E+00)
 search vector abs. value=  0.646E-01
 bond charge predicted
       N       E                     dE             d eps       ncg     rms          rms(c)
DAV:   1    -0.601718070194E+02   -0.11181E-01   -0.10724E+00   384   0.736E+00    0.288E-01
DAV:   2    -0.601721750177E+02   -0.36800E-03   -0.24843E-02   560   0.104E+00    0.179E-01
DAV:   3    -0.601715530320E+02    0.62199E-03   -0.21813E-03   528   0.295E-01    0.861E-02
DAV:   4    -0.601714791611E+02    0.73871E-04   -0.34897E-04   480   0.118E-01
  38 F= -.60171479E+02 E0= -.60162897E+02  d E =-.108493E-01
 trial-energy change:   -0.010849  1 .order   -0.011060   -0.016775   -0.005346
 step:   0.5871(harm=  0.5871)  dis= 0.01177  next Energy=   -60.172940 (dE=-0.123E-01)
 bond charge predicted
       N       E                     dE             d eps       ncg     rms          rms(c)
DAV:   1    -0.601727052131E+02   -0.11522E-02   -0.23369E-01   384   0.343E+00    0.136E-01
DAV:   2    -0.601727497348E+02   -0.44522E-04   -0.52940E-03   576   0.482E-01    0.854E-02
DAV:   3    -0.601726095727E+02    0.14016E-03   -0.52221E-04   496   0.143E-01    0.401E-02
DAV:   4    -0.601725997164E+02    0.98563E-05   -0.74084E-05   336   0.576E-02
  39 F= -.60172600E+02 E0= -.60164042E+02  d E =-.119699E-01
 curvature:  -0.45 expect dE=-0.182E-01 dE for cont linesearch -0.128E-05
 trial: gam= 0.95052 g(F)=  0.349E-01 g(S)=  0.529E-02 ort =-0.428E-03 (trialstep = 0.289E+00)
 search vector abs. value=  0.978E-01
 bond charge predicted
       N       E                     dE             d eps       ncg     rms          rms(c)
DAV:   1    -0.601831314711E+02   -0.10522E-01   -0.84379E-01   384   0.630E+00    0.256E-01
DAV:   2    -0.601831631332E+02   -0.31662E-04   -0.16531E-02   512   0.880E-01    0.150E-01
DAV:   3    -0.601827044369E+02    0.45870E-03   -0.15217E-03   520   0.265E-01    0.599E-02
DAV:   4    -0.601826950828E+02    0.93541E-05   -0.24288E-04   432   0.102E-01
  40 F= -.60182695E+02 E0= -.60174327E+02  d E =-.100954E-01
 ZBRENT: can't locate minimum, use default step
 trial-energy change:   -0.010095  1 .order   -0.010139   -0.011505   -0.008773
 step:   1.1568(harm=  1.2182)  dis= 0.03261  next Energy=   -60.196829 (dE=-0.242E-01)
 bond charge predicted
       N       E                     dE             d eps       ncg     rms          rms(c)
DAV:   1    -0.602005652254E+02   -0.17861E-01   -0.76040E+00   384   0.189E+01    0.776E-01
DAV:   2    -0.602008546405E+02   -0.28942E-03   -0.15390E-01   512   0.268E+00    0.451E-01
DAV:   3    -0.601968005259E+02    0.40541E-02   -0.13310E-02   512   0.795E-01    0.184E-01
DAV:   4    -0.601966725047E+02    0.12802E-03   -0.23137E-03   496   0.306E-01    0.857E-02
DAV:   5    -0.601967036587E+02   -0.31154E-04   -0.26328E-04   448   0.107E-01
  41 F= -.60196704E+02 E0= -.60188818E+02  d E =-.241039E-01
 curvature:  -1.49 expect dE=-0.175E+00 dE for cont linesearch -0.118E-03
 trial: gam= 2.87723 g(F)=  0.110E+00 g(S)=  0.709E-02 ort = 0.278E-02 (trialstep = 0.480E-01)
 search vector abs. value=  0.943E+00
 bond charge predicted
       N       E                     dE             d eps       ncg     rms          rms(c)
DAV:   1    -0.602026361733E+02   -0.59637E-02   -0.22452E-01   384   0.321E+00    0.131E-01
DAV:   2    -0.602026042932E+02    0.31880E-04   -0.40837E-03   512   0.433E-01    0.742E-02
DAV:   3    -0.602025168028E+02    0.87490E-04   -0.36902E-04   480   0.131E-01
  42 F= -.60202517E+02 E0= -.60194856E+02  d E =-.581314E-02
 ZBRENT: can't locate minimum, use default step
 trial-energy change:   -0.005813  1 .order   -0.005746   -0.006023   -0.005468
 step:   0.1919(harm=  0.5204)  dis= 0.01591  next Energy=   -60.229366 (dE=-0.327E-01)
 bond charge predicted
       N       E                     dE             d eps       ncg     rms          rms(c)
DAV:   1    -0.602182053452E+02   -0.15601E-01   -0.20273E+00   384   0.963E+00    0.397E-01
DAV:   2    -0.602179078671E+02    0.29748E-03   -0.36892E-02   496   0.130E+00    0.224E-01
DAV:   3    -0.602169365655E+02    0.97130E-03   -0.32993E-03   480   0.393E-01    0.737E-02
DAV:   4    -0.602169449277E+02   -0.83622E-05   -0.50640E-04   488   0.142E-01
  43 F= -.60216945E+02 E0= -.60209670E+02  d E =-.202413E-01
 curvature:  -1.01 expect dE=-0.682E-01 dE for cont linesearch -0.786E-02
 ZBRENT: increasing intervall
 opt :   0.4798  next Energy=   -60.233465 (dE=-0.368E-01)
 bond charge predicted
       N       E                     dE             d eps       ncg     rms          rms(c)
DAV:   1    -0.602383116462E+02   -0.21375E-01   -0.81310E+00   384   0.193E+01    0.800E-01
DAV:   2    -0.602369256830E+02    0.13860E-02   -0.15248E-01   496   0.265E+00    0.446E-01
DAV:   3    -0.602330325186E+02    0.38932E-02   -0.13253E-02   480   0.792E-01    0.143E-01
DAV:   4    -0.602330247574E+02    0.77612E-05   -0.20103E-03   512   0.278E-01    0.661E-02
DAV:   5    -0.602330954774E+02   -0.70720E-04   -0.17039E-04   328   0.873E-02
  44 F= -.60233095E+02 E0= -.60226529E+02  d E =-.363918E-01
 curvature:  -2.12 expect dE=-0.261E+00 dE for cont linesearch -0.164E-02
 ZBRENT: extrapolating
 opt :   0.6121  next Energy=   -60.234881 (dE=-0.382E-01)
 bond charge predicted
       N       E                     dE             d eps       ncg     rms          rms(c)
DAV:   1    -0.602361452874E+02   -0.31205E-02   -0.17243E+00   384   0.889E+00    0.367E-01
DAV:   2    -0.602357315221E+02    0.41377E-03   -0.31691E-02   496   0.120E+00    0.205E-01
DAV:   3    -0.602348863966E+02    0.84513E-03   -0.29229E-03   496   0.364E-01    0.665E-02
DAV:   4    -0.602349136423E+02   -0.27246E-04   -0.42967E-04   496   0.130E-01
  45 F= -.60234914E+02 E0= -.60228734E+02  d E =-.382100E-01
 curvature:  -2.31 expect dE=-0.467E+00 dE for cont linesearch -0.694E-06
 trial: gam= 1.87755 g(F)=  0.197E+00 g(S)=  0.562E-02 ort =-0.532E-03 (trialstep = 0.430E-01)
 search vector abs. value=  0.352E+01
 bond charge predicted
       N       E                     dE             d eps       ncg     rms          rms(c)
DAV:   1    -0.602437850997E+02   -0.88987E-02   -0.68027E-01   384   0.554E+00    0.232E-01
DAV:   2    -0.602435730679E+02    0.21203E-03   -0.11837E-02   448   0.737E-01    0.130E-01
DAV:   3    -0.602432365143E+02    0.33655E-03   -0.12718E-03   528   0.231E-01    0.403E-02
DAV:   4    -0.602432615987E+02   -0.25084E-04   -0.14597E-04   336   0.786E-02
  46 F= -.60243262E+02 E0= -.60237347E+02  d E =-.834796E-02
 ZBRENT: can't locate minimum, use default step
 trial-energy change:   -0.008348  1 .order   -0.008277   -0.008654   -0.007900
 step:   0.1721(harm=  0.4939)  dis= 0.02824  next Energy=   -60.284586 (dE=-0.497E-01)
 bond charge predicted
       N       E                     dE             d eps       ncg     rms          rms(c)
DAV:   1    -0.602687512579E+02   -0.25515E-01   -0.61273E+00   384   0.166E+01    0.701E-01
DAV:   2    -0.602668707012E+02    0.18806E-02   -0.10881E-01   464   0.224E+00    0.386E-01
DAV:   3    -0.602638100525E+02    0.30606E-02   -0.11027E-02   512   0.685E-01    0.120E-01
DAV:   4    -0.602638398930E+02   -0.29841E-04   -0.13665E-03   512   0.226E-01    0.570E-02
DAV:   5    -0.602639034139E+02   -0.63521E-04   -0.10634E-04   320   0.724E-02
  47 F= -.60263903E+02 E0= -.60258678E+02  d E =-.289898E-01
 curvature:  -2.12 expect dE=-0.258E+00 dE for cont linesearch -0.112E-01
 ZBRENT: increasing intervall
 opt :   0.4303  next Energy=   -60.287000 (dE=-0.521E-01)
 bond charge predicted
       N       E                     dE             d eps       ncg     rms          rms(c)
DAV:   1    -0.603056273312E+02   -0.41787E-01   -0.24589E+01   384   0.335E+01    0.145E+00
DAV:   2    -0.602980610689E+02    0.75663E-02   -0.46929E-01   456   0.466E+00    0.778E-01
DAV:   3    -0.602861219645E+02    0.11939E-01   -0.41556E-02   512   0.137E+00    0.272E-01
DAV:   4    -0.602860181269E+02    0.10384E-03   -0.51874E-03   504   0.440E-01    0.117E-01
DAV:   5    -0.602862013674E+02   -0.18324E-03   -0.44060E-04   392   0.137E-01    0.310E-02
DAV:   6    -0.602863624393E+02   -0.16107E-03   -0.79602E-05   352   0.661E-02    0.122E-02
DAV:   7    -0.602864980759E+02   -0.13564E-03   -0.43700E-05   344   0.420E-02    0.698E-03
DAV:   8    -0.602866260675E+02   -0.12799E-03   -0.28636E-05   336   0.309E-02    0.389E-03
DAV:   9    -0.602867298575E+02   -0.10379E-03   -0.30999E-05   344   0.230E-02    0.277E-03
DAV:  10    -0.602867705617E+02   -0.40704E-04   -0.10591E-05   352   0.138E-02
  48 F= -.60286771E+02 E0= -.60283038E+02  d E =-.518569E-01
 curvature:  -4.37 expect dE=-0.497E+00 dE for cont linesearch -0.170E-02
 ZBRENT: extrapolating
 opt :   0.5266  next Energy=   -60.288557 (dE=-0.536E-01)
 bond charge predicted
       N       E                     dE             d eps       ncg     rms          rms(c)
DAV:   1    -0.602918672022E+02   -0.51373E-02   -0.34307E+00   384   0.125E+01    0.531E-01
DAV:   2    -0.602904937384E+02    0.13735E-02   -0.60868E-02   448   0.167E+00    0.292E-01
DAV:   3    -0.602886249207E+02    0.18688E-02   -0.67905E-03   496   0.526E-01    0.903E-02
DAV:   4    -0.602886258965E+02   -0.97572E-06   -0.80281E-04   512   0.174E-01
  49 F= -.60288626E+02 E0= -.60285413E+02  d E =-.537123E-01
 curvature:  -4.57 expect dE=-0.655E+00 dE for cont linesearch -0.240E-05
 trial: gam= 0.50550 g(F)=  0.991E-01 g(S)=  0.440E-01 ort = 0.136E-02 (trialstep = 0.140E+00)
 search vector abs. value=  0.105E+01
 bond charge predicted
       N       E                     dE             d eps       ncg     rms          rms(c)
DAV:   1    -0.603078109540E+02   -0.19186E-01   -0.21541E+00   384   0.978E+00    0.437E-01
DAV:   2    -0.603070906363E+02    0.72032E-03   -0.41281E-02   472   0.137E+00    0.245E-01
DAV:   3    -0.603056943979E+02    0.13962E-02   -0.49841E-03   504   0.474E-01    0.733E-02
DAV:   4    -0.603057199796E+02   -0.25582E-04   -0.56819E-04   504   0.153E-01
  50 F= -.60305720E+02 E0= -.60302528E+02  d E =-.170941E-01
 trial-energy change:   -0.017094  1 .order   -0.017124   -0.020095   -0.014153
 step:   0.4726(harm=  0.4726)  dis= 0.04720  next Energy=   -60.322605 (dE=-0.340E-01)
 bond charge predicted
       N       E                     dE             d eps       ncg     rms          rms(c)
DAV:   1    -0.603350546685E+02   -0.29360E-01   -0.12227E+01   384   0.233E+01    0.106E+00
DAV:   2    -0.603308281377E+02    0.42265E-02   -0.24308E-01   456   0.339E+00    0.585E-01
DAV:   3    -0.603230274363E+02    0.78007E-02   -0.27492E-02   504   0.114E+00    0.184E-01
DAV:   4    -0.603230283841E+02   -0.94774E-06   -0.31318E-03   504   0.355E-01    0.979E-02
DAV:   5    -0.603231722732E+02   -0.14389E-03   -0.37826E-04   448   0.118E-01    0.288E-02
DAV:   6    -0.603232874869E+02   -0.11521E-03   -0.79400E-05   352   0.591E-02    0.111E-02
DAV:   7    -0.603234044644E+02   -0.11698E-03   -0.36803E-05   360   0.357E-02    0.604E-03
DAV:   8    -0.603234987361E+02   -0.94272E-04   -0.20906E-05   336   0.253E-02
  51 F= -.60323499E+02 E0= -.60320432E+02  d E =-.348728E-01
 curvature:  -1.72 expect dE=-0.185E+00 dE for cont linesearch -0.435E-04
 trial: gam= 0.74310 g(F)=  0.100E+00 g(S)=  0.721E-02 ort = 0.514E-02 (trialstep = 0.206E+00)
 search vector abs. value=  0.692E+00
 bond charge predicted
       N       E                     dE             d eps       ncg     rms          rms(c)
DAV:   1    -0.603458364194E+02   -0.22432E-01   -0.32169E+00   384   0.117E+01    0.548E-01
DAV:   2    -0.603447154594E+02    0.11210E-02   -0.61704E-02   544   0.164E+00    0.299E-01
DAV:   3    -0.603425104733E+02    0.22050E-02   -0.67382E-03   504   0.549E-01    0.894E-02
DAV:   4    -0.603424866320E+02    0.23841E-04   -0.78079E-04   512   0.177E-01
  52 F= -.60342487E+02 E0= -.60339434E+02  d E =-.189879E-01
 trial-energy change:   -0.018988  1 .order   -0.019000   -0.022991   -0.015010
 step:   0.5943(harm=  0.5943)  dis= 0.05533  next Energy=   -60.356612 (dE=-0.331E-01)
 bond charge predicted
       N       E                     dE             d eps       ncg     rms          rms(c)
DAV:   1    -0.603695928744E+02   -0.27082E-01   -0.11397E+01   384   0.220E+01    0.106E+00
DAV:   2    -0.603650552084E+02    0.45377E-02   -0.22697E-01   536   0.322E+00    0.571E-01
DAV:   3    -0.603572019753E+02    0.78532E-02   -0.23072E-02   512   0.104E+00    0.187E-01
DAV:   4    -0.603570924208E+02    0.10955E-03   -0.28583E-03   472   0.332E-01    0.938E-02
DAV:   5    -0.603572591970E+02   -0.16678E-03   -0.29053E-04   408   0.108E-01    0.293E-02
DAV:   6    -0.603573983619E+02   -0.13916E-03   -0.65156E-05   352   0.558E-02    0.102E-02
DAV:   7    -0.603575450109E+02   -0.14665E-03   -0.43111E-05   352   0.385E-02    0.596E-03
DAV:   8    -0.603576858306E+02   -0.14082E-03   -0.37764E-05   336   0.294E-02    0.364E-03
DAV:   9    -0.603577579399E+02   -0.72109E-04   -0.22686E-05   336   0.182E-02
  53 F= -.60357758E+02 E0= -.60354697E+02  d E =-.342592E-01
 curvature:  -1.85 expect dE=-0.356E+00 dE for cont linesearch -0.589E-04
 trial: gam= 1.80482 g(F)=  0.159E+00 g(S)=  0.338E-01 ort = 0.470E-02 (trialstep = 0.797E-01)
 search vector abs. value=  0.246E+01
 bond charge predicted
       N       E                     dE             d eps       ncg     rms          rms(c)
DAV:   1    -0.603747680316E+02   -0.17082E-01   -0.18117E+00   384   0.856E+00    0.401E-01
DAV:   2    -0.603738474096E+02    0.92062E-03   -0.34391E-02   512   0.122E+00    0.217E-01
DAV:   3    -0.603725948397E+02    0.12526E-02   -0.42230E-03   456   0.417E-01    0.736E-02
DAV:   4    -0.603725760059E+02    0.18834E-04   -0.46040E-04   496   0.138E-01
  54 F= -.60372576E+02 E0= -.60369732E+02  d E =-.148181E-01
 ZBRENT: can't locate minimum, use default step
 trial-energy change:   -0.014818  1 .order   -0.014871   -0.016041   -0.013701
 step:   0.3190(harm=  0.5467)  dis= 0.05997  next Energy=   -60.412741 (dE=-0.550E-01)
 bond charge predicted
       N       E                     dE             d eps       ncg     rms          rms(c)
DAV:   1    -0.604215271024E+02   -0.48932E-01   -0.16339E+01   384   0.258E+01    0.124E+00
DAV:   2    -0.604136891686E+02    0.78379E-02   -0.33498E-01   464   0.392E+00    0.660E-01
DAV:   3    -0.604028982969E+02    0.10791E-01   -0.36171E-02   488   0.126E+00    0.259E-01
DAV:   4    -0.604025919920E+02    0.30630E-03   -0.42273E-03   488   0.403E-01    0.129E-01
DAV:   5    -0.604027902232E+02   -0.19823E-03   -0.43573E-04   384   0.133E-01    0.351E-02
DAV:   6    -0.604029568722E+02   -0.16665E-03   -0.90909E-05   320   0.664E-02    0.126E-02
DAV:   7    -0.604031470667E+02   -0.19019E-03   -0.71522E-05   304   0.465E-02    0.773E-03
DAV:   8    -0.604032813459E+02   -0.13428E-03   -0.28038E-05   320   0.302E-02    0.405E-03
DAV:   9    -0.604034119244E+02   -0.13058E-03   -0.49603E-05   304   0.245E-02    0.356E-03
DAV:  10    -0.604034474035E+02   -0.35479E-04   -0.12888E-05   384   0.151E-02
  55 F= -.60403447E+02 E0= -.60401356E+02  d E =-.456895E-01
 curvature:  -2.55 expect dE=-0.341E+00 dE for cont linesearch -0.742E-02
 ZBRENT: increasing intervall
 opt :   0.7974  next Energy=   -60.402228 (dE=-0.445E-01)
 bond charge predicted
       N       E                     dE             d eps       ncg     rms          rms(c)
DAV:   1    -0.604541362193E+02   -0.50724E-01   -0.66369E+01   384   0.533E+01    0.264E+00
DAV:   2    -0.604461209154E+02    0.80153E-02   -0.16040E+00   432   0.873E+00    0.135E+00
DAV:   3    -0.604066742457E+02    0.39447E-01   -0.12983E-01   480   0.253E+00    0.654E-01
DAV:   4    -0.604034329680E+02    0.32413E-02   -0.18358E-02   480   0.815E-01    0.277E-01
DAV:   5    -0.604037273141E+02   -0.29435E-03   -0.16561E-03   456   0.256E-01    0.709E-02
DAV:   6    -0.604042146995E+02   -0.48739E-03   -0.28054E-04   304   0.106E-01    0.260E-02
DAV:   7    -0.604047001185E+02   -0.48542E-03   -0.18810E-04   304   0.712E-02    0.153E-02
DAV:   8    -0.604050675114E+02   -0.36739E-03   -0.96807E-05   296   0.473E-02    0.729E-03
DAV:   9    -0.604053493242E+02   -0.28181E-03   -0.13479E-04   304   0.417E-02    0.731E-03
DAV:  10    -0.604054591996E+02   -0.10988E-03   -0.54822E-05   320   0.313E-02    0.391E-03
DAV:  11    -0.604054989096E+02   -0.39710E-04   -0.24643E-05   320   0.192E-02
  56 F= -.60405499E+02 E0= -.60404514E+02  d E =-.477410E-01
 curvature:   0.42 expect dE= 0.263E+00 dE for cont linesearch  0.117E-02
 ZBRENT: bracketing found
 ZBRENT: interpolating
 opt :   0.5606  next Energy=   -60.415315 (dE=-0.576E-01)
 bond charge predicted
       N       E                     dE             d eps       ncg     rms          rms(c)
DAV:   1    -0.604285734770E+02   -0.23114E-01   -0.16385E+01   384   0.265E+01    0.116E+00
DAV:   2    -0.604262335121E+02    0.23400E-02   -0.34169E-01   464   0.371E+00    0.643E-01
DAV:   3    -0.604141952382E+02    0.12038E-01   -0.44587E-02   480   0.128E+00    0.188E-01
DAV:   4    -0.604141067913E+02    0.88447E-04   -0.40338E-03   512   0.427E-01    0.111E-01
DAV:   5    -0.604140349828E+02    0.71809E-04   -0.65828E-04   456   0.151E-01
  57 F= -.60414035E+02 E0= -.60412513E+02  d E =-.562770E-01
 curvature:  -3.52 expect dE=-0.106E+01 dE for cont linesearch -0.126E-03
 trial: gam= 1.60978 g(F)=  0.231E+00 g(S)=  0.717E-01 ort =-0.941E-02 (trialstep = 0.651E-01)
 search vector abs. value=  0.666E+01
 bond charge predicted
       N       E                     dE             d eps       ncg     rms          rms(c)
DAV:   1    -0.604375906461E+02   -0.23484E-01   -0.32674E+00   384   0.112E+01    0.544E-01
DAV:   2    -0.604358155843E+02    0.17751E-02   -0.60857E-02   472   0.158E+00    0.287E-01
DAV:   3    -0.604338079142E+02    0.20077E-02   -0.76293E-03   432   0.557E-01    0.885E-02
DAV:   4    -0.604338183897E+02   -0.10475E-04   -0.77823E-04   464   0.177E-01
  58 F= -.60433818E+02 E0= -.60432590E+02  d E =-.197834E-01
 trial-energy change:   -0.019783  1 .order   -0.018909   -0.018708   -0.019111
 step:   0.1629(harm=  0.2604)  dis= 0.05293  next Energy=   -60.451136 (dE=-0.371E-01)
 bond charge predicted
       N       E                     dE             d eps       ncg     rms          rms(c)
DAV:   1    -0.604727875400E+02   -0.38980E-01   -0.73818E+00   384   0.168E+01    0.827E-01
DAV:   2    -0.604673616521E+02    0.54259E-02   -0.14077E-01   432   0.244E+00    0.436E-01
DAV:   3    -0.604619313303E+02    0.54303E-02   -0.17822E-02   456   0.852E-01    0.142E-01
DAV:   4    -0.604619587616E+02   -0.27431E-04   -0.17392E-03   464   0.262E-01    0.759E-02
DAV:   5    -0.604621205173E+02   -0.16176E-03   -0.19713E-04   264   0.929E-02    0.211E-02
DAV:   6    -0.604622322367E+02   -0.11172E-03   -0.46263E-05   312   0.512E-02    0.925E-03
DAV:   7    -0.604623821276E+02   -0.14989E-03   -0.44273E-05   272   0.353E-02    0.513E-03
DAV:   8    -0.604624639716E+02   -0.81844E-04   -0.15320E-05   296   0.224E-02
  59 F= -.60462464E+02 E0= -.60461779E+02  d E =-.484290E-01
 curvature:  -2.25 expect dE=-0.688E+00 dE for cont linesearch -0.280E-01
 ZBRENT: increasing intervall
 opt :   0.3586  next Energy=   -60.517552 (dE=-0.104E+00)
 bond charge predicted
       N       E                     dE             d eps       ncg     rms          rms(c)
DAV:   1    -0.605523528101E+02   -0.89971E-01   -0.29708E+01   384   0.341E+01    0.171E+00
DAV:   2    -0.605365689217E+02    0.15784E-01   -0.62900E-01   416   0.527E+00    0.880E-01
DAV:   3    -0.605161300844E+02    0.20439E-01   -0.66924E-02   440   0.174E+00    0.322E-01
DAV:   4    -0.605158069708E+02    0.32311E-03   -0.73414E-03   496   0.523E-01    0.158E-01
DAV:   5    -0.605161962964E+02   -0.38933E-03   -0.73710E-04   384   0.174E-01    0.453E-02
DAV:   6    -0.605164817577E+02   -0.28546E-03   -0.12872E-04   288   0.744E-02    0.180E-02
DAV:   7    -0.605168330252E+02   -0.35127E-03   -0.13409E-04   256   0.598E-02    0.111E-02
DAV:   8    -0.605171211893E+02   -0.28816E-03   -0.87069E-05   288   0.451E-02    0.537E-03
DAV:   9    -0.605173246028E+02   -0.20341E-03   -0.98663E-05   296   0.327E-02    0.484E-03
DAV:  10    -0.605173786252E+02   -0.54022E-04   -0.26262E-05   328   0.225E-02
  60 F= -.60517379E+02 E0= -.60517024E+02  d E =-.103344E+00
 curvature:  -4.44 expect dE=-0.147E+01 dE for cont linesearch -0.455E-01
 ZBRENT: increasing intervall
 opt :   0.7498  next Energy=   -60.609341 (dE=-0.195E+00)
 bond charge predicted
       N       E                     dE             d eps       ncg     rms          rms(c)
DAV:   1    -0.607055392968E+02   -0.18821E+00   -0.12426E+02   384   0.739E+01    0.377E+00
DAV:   2    -0.606914384504E+02    0.14101E-01   -0.32116E+00   416   0.120E+01    0.183E+00
DAV:   3    -0.606154054473E+02    0.76033E-01   -0.24507E-01   544   0.340E+00    0.877E-01
DAV:   4    -0.606082867350E+02    0.71187E-02   -0.29289E-02   496   0.960E-01    0.350E-01
DAV:   5    -0.606087313558E+02   -0.44462E-03   -0.27338E-03   464   0.330E-01    0.964E-02
DAV:   6    -0.606096115293E+02   -0.88017E-03   -0.54900E-04   416   0.146E-01    0.374E-02
DAV:   7    -0.606104261319E+02   -0.81460E-03   -0.29888E-04   336   0.860E-02    0.221E-02
DAV:   8    -0.606111518117E+02   -0.72568E-03   -0.39197E-04   352   0.777E-02    0.115E-02
DAV:   9    -0.606114450820E+02   -0.29327E-03   -0.19436E-04   336   0.490E-02    0.960E-03
DAV:  10    -0.606115387868E+02   -0.93705E-04   -0.90378E-05   304   0.337E-02
  61 F= -.60611539E+02 E0= -.60611306E+02  d E =-.197504E+00
 curvature:  -8.97 expect dE=-0.403E+01 dE for cont linesearch -0.452E-01
 ZBRENT: increasing intervall
 opt :   1.5323  next Energy=   -60.693675 (dE=-0.280E+00)
 bond charge predicted
       N       E                     dE             d eps       ncg     rms          rms(c)
DAV:   1    -0.607323999032E+02   -0.12095E+00   -0.63801E+02   448   0.200E+02    0.902E+00
DAV:   2    -0.609976663315E+02   -0.26527E+00   -0.15718E+01   416   0.264E+01    0.403E+00
DAV:   3    -0.607548926349E+02    0.24277E+00   -0.90199E-01   488   0.652E+00    0.257E+00
DAV:   4    -0.606916052868E+02    0.63287E-01   -0.18520E-01   584   0.278E+00    0.789E-01
DAV:   5    -0.606885750843E+02    0.30302E-02   -0.21854E-02   544   0.869E-01    0.226E-01
DAV:   6    -0.606898696426E+02   -0.12946E-02   -0.28135E-03   488   0.369E-01    0.914E-02
DAV:   7    -0.606908577521E+02   -0.98811E-03   -0.89358E-04   456   0.164E-01    0.510E-02
DAV:   8    -0.606917701213E+02   -0.91237E-03   -0.14817E-03   416   0.161E-01    0.334E-02
DAV:   9    -0.606919290605E+02   -0.15894E-03   -0.55237E-04   384   0.853E-02    0.192E-02
DAV:  10    -0.606918329873E+02    0.96073E-04   -0.15872E-04   368   0.529E-02
  62 F= -.60691833E+02 E0= -.60691641E+02  d E =-.277798E+00
 curvature: -16.31 expect dE=-0.144E+02 dE for cont linesearch -0.192E-01
 ZBRENT: bracketing found
 ZBRENT: interpolating
 opt :   1.2775  next Energy=   -60.703099 (dE=-0.289E+00)
 bond charge predicted
       N       E                     dE             d eps       ncg     rms          rms(c)
DAV:   1    -0.607481076499E+02   -0.56179E-01   -0.55308E+01   384   0.499E+01    0.222E+00
DAV:   2    -0.607373074396E+02    0.10800E-01   -0.13183E+00   472   0.731E+00    0.121E+00
DAV:   3    -0.606894657925E+02    0.47842E-01   -0.18276E-01   560   0.246E+00    0.351E-01
DAV:   4    -0.606885463059E+02    0.91949E-03   -0.11603E-02   512   0.713E-01    0.206E-01
DAV:   5    -0.606878012853E+02    0.74502E-03   -0.26481E-03   496   0.314E-01    0.688E-02
DAV:   6    -0.606876857742E+02    0.11551E-03   -0.55295E-04   496   0.147E-01    0.310E-02
DAV:   7    -0.606877351035E+02   -0.49329E-04   -0.11678E-04   336   0.658E-02
  63 F= -.60687735E+02 E0= -.60687544E+02  d E =-.273700E+00
 curvature:  -9.59 expect dE=-0.655E+01 dE for cont linesearch -0.164E-03
 trial: gam= 1.52127 g(F)=  0.533E+00 g(S)=  0.150E+00 ort = 0.107E-01 (trialstep = 0.127E+00)
 search vector abs. value=  0.161E+02
 bond charge predicted
       N       E                     dE             d eps       ncg     rms          rms(c)
DAV:   1    -0.607980113034E+02   -0.11033E+00   -0.30230E+01   384   0.340E+01    0.177E+00
DAV:   2    -0.607839508609E+02    0.14060E-01   -0.64760E-01   488   0.533E+00    0.931E-01
DAV:   3    -0.607609602044E+02    0.22991E-01   -0.76057E-02   440   0.187E+00    0.325E-01
DAV:   4    -0.607606033618E+02    0.35684E-03   -0.68641E-03   504   0.540E-01    0.157E-01
DAV:   5    -0.607610458781E+02   -0.44252E-03   -0.91800E-04   472   0.192E-01    0.471E-02
DAV:   6    -0.607614018534E+02   -0.35598E-03   -0.18115E-04   368   0.937E-02    0.196E-02
DAV:   7    -0.607617969082E+02   -0.39505E-03   -0.12601E-04   288   0.634E-02    0.114E-02
DAV:   8    -0.607621023987E+02   -0.30549E-03   -0.78774E-05   304   0.482E-02    0.531E-03
DAV:   9    -0.607623347356E+02   -0.23234E-03   -0.10550E-04   320   0.352E-02    0.465E-03
DAV:  10    -0.607623878265E+02   -0.53091E-04   -0.22296E-05   344   0.230E-02
  64 F= -.60762388E+02 E0= -.60762297E+02  d E =-.746527E-01
 trial-energy change:   -0.074653  1 .order   -0.071753   -0.088747   -0.054760
 step:   0.2326(harm=  0.3317)  dis= 0.12009  next Energy=   -60.786824 (dE=-0.991E-01)
 bond charge predicted
       N       E                     dE             d eps       ncg     rms          rms(c)
DAV:   1    -0.608234524410E+02   -0.61118E-01   -0.20968E+01   384   0.283E+01    0.148E+00
DAV:   2    -0.608101522299E+02    0.13300E-01   -0.43316E-01   416   0.433E+00    0.781E-01
DAV:   3    -0.607934656384E+02    0.16687E-01   -0.54832E-02   480   0.157E+00    0.264E-01
DAV:   4    -0.607932338429E+02    0.23180E-03   -0.46124E-03   496   0.447E-01    0.130E-01
DAV:   5    -0.607935262062E+02   -0.29236E-03   -0.65560E-04   384   0.162E-01    0.398E-02
DAV:   6    -0.607937964190E+02   -0.27021E-03   -0.14768E-04   288   0.844E-02    0.165E-02
DAV:   7    -0.607941093316E+02   -0.31291E-03   -0.12414E-04   272   0.605E-02    0.122E-02
DAV:   8    -0.607943533192E+02   -0.24399E-03   -0.85100E-05   304   0.474E-02    0.552E-03
DAV:   9    -0.607945132366E+02   -0.15992E-03   -0.96273E-05   304   0.337E-02    0.494E-03
DAV:  10    -0.607945414930E+02   -0.28256E-04   -0.21048E-05   336   0.233E-02
  65 F= -.60794541E+02 E0= -.60794493E+02  d E =-.106806E+00
 curvature:  -2.93 expect dE=-0.975E+00 dE for cont linesearch -0.445E-02
 ZBRENT: increasing intervall
 opt :   0.4439  next Energy=   -60.769569 (dE=-0.818E-01)
 bond charge predicted
       N       E                     dE             d eps       ncg     rms          rms(c)
DAV:   1    -0.608527881849E+02   -0.58275E-01   -0.85989E+01   384   0.596E+01    0.322E+00
DAV:   2    -0.608280857003E+02    0.24702E-01   -0.21573E+00   416   0.989E+00    0.162E+00
DAV:   3    -0.607650435030E+02    0.63042E-01   -0.20534E-01   568   0.313E+00    0.667E-01
DAV:   4    -0.607606946218E+02    0.43489E-02   -0.16940E-02   496   0.805E-01    0.287E-01
DAV:   5    -0.607610082615E+02   -0.31364E-03   -0.22465E-03   448   0.292E-01    0.793E-02
DAV:   6    -0.607617447316E+02   -0.73647E-03   -0.57919E-04   400   0.148E-01    0.309E-02
DAV:   7    -0.607623909302E+02   -0.64620E-03   -0.29299E-04   336   0.858E-02    0.250E-02
DAV:   8    -0.607629464099E+02   -0.55548E-03   -0.30927E-04   336   0.719E-02    0.113E-02
DAV:   9    -0.607631621347E+02   -0.21572E-03   -0.20354E-04   368   0.499E-02    0.950E-03
DAV:  10    -0.607631913305E+02   -0.29196E-04   -0.49931E-05   336   0.302E-02
  66 F= -.60763191E+02 E0= -.60763178E+02  d E =-.754562E-01
 curvature:  16.45 expect dE= 0.161E+02 dE for cont linesearch  0.246E+00
 ZBRENT: bracketing found
 ZBRENT: interpolating
 opt :   0.2837  next Energy=   -60.798534 (dE=-0.111E+00)
 bond charge predicted
       N       E                     dE             d eps       ncg     rms          rms(c)
DAV:   1    -0.608832592875E+02   -0.12010E+00   -0.53039E+01   432   0.492E+01    0.217E+00
DAV:   2    -0.608422244771E+02    0.41035E-01   -0.88322E-01   480   0.682E+00    0.117E+00
DAV:   3    -0.607997097506E+02    0.42515E-01   -0.15297E-01   528   0.235E+00    0.320E-01
DAV:   4    -0.607987223626E+02    0.98739E-03   -0.10927E-02   512   0.709E-01    0.190E-01
DAV:   5    -0.607979816474E+02    0.74072E-03   -0.27765E-03   504   0.311E-01    0.671E-02
DAV:   6    -0.607978436370E+02    0.13801E-03   -0.51648E-04   496   0.144E-01    0.327E-02
DAV:   7    -0.607978387432E+02    0.48938E-05   -0.12142E-04   352   0.680E-02
  67 F= -.60797839E+02 E0= -.60797805E+02  d E =-.110104E+00
 curvature:  -0.27 expect dE=-0.106E+00 dE for cont linesearch -0.254E-05
 trial: gam= 0.40345 g(F)=  0.330E+00 g(S)=  0.659E-01 ort =-0.124E-01 (trialstep = 0.158E+00)
 search vector abs. value=  0.301E+01
 bond charge predicted
       N       E                     dE             d eps       ncg     rms          rms(c)
DAV:   1    -0.608663173070E+02   -0.68474E-01   -0.87125E+00   384   0.182E+01    0.985E-01
DAV:   2    -0.608597114739E+02    0.66058E-02   -0.18480E-01   448   0.282E+00    0.547E-01
DAV:   3    -0.608517625194E+02    0.79490E-02   -0.28131E-02   424   0.111E+00    0.172E-01
DAV:   4    -0.608516504022E+02    0.11212E-03   -0.18753E-03   480   0.285E-01    0.888E-02
DAV:   5    -0.608517446522E+02   -0.94250E-04   -0.20971E-04   352   0.990E-02
  68 F= -.60851745E+02 E0= -.60851727E+02  d E =-.539059E-01
 trial-energy change:   -0.053906  1 .order   -0.052925   -0.061849   -0.044001
 step:   0.3771(harm=  0.5488)  dis= 0.08349  next Energy=   -60.884714 (dE=-0.869E-01)
 bond charge predicted
       N       E                     dE             d eps       ncg     rms          rms(c)
DAV:   1    -0.609216047161E+02   -0.69954E-01   -0.16622E+01   384   0.252E+01    0.139E+00
DAV:   2    -0.609058850739E+02    0.15720E-01   -0.35463E-01   432   0.393E+00    0.760E-01
DAV:   3    -0.608901088226E+02    0.15776E-01   -0.53031E-02   504   0.154E+00    0.249E-01
DAV:   4    -0.608901312656E+02   -0.22443E-04   -0.34810E-03   464   0.388E-01    0.126E-01
DAV:   5    -0.608905690366E+02   -0.43777E-03   -0.50567E-04   448   0.143E-01    0.363E-02
DAV:   6    -0.608909215463E+02   -0.35251E-03   -0.13829E-04   288   0.752E-02    0.151E-02
DAV:   7    -0.608912805581E+02   -0.35901E-03   -0.14047E-04   320   0.560E-02    0.134E-02
DAV:   8    -0.608915427904E+02   -0.26223E-03   -0.93197E-05   304   0.449E-02    0.725E-03
DAV:   9    -0.608916818984E+02   -0.13911E-03   -0.96838E-05   336   0.338E-02    0.500E-03
DAV:  10    -0.608917054961E+02   -0.23598E-04   -0.15965E-05   336   0.248E-02
  69 F= -.60891705E+02 E0= -.60891698E+02  d E =-.938668E-01
 curvature:  -1.71 expect dE=-0.296E+00 dE for cont linesearch -0.354E-02
 ZBRENT: extrapolating
 opt :   0.4640  next Energy=   -60.895144 (dE=-0.973E-01)
 bond charge predicted
       N       E                     dE             d eps       ncg     rms          rms(c)
DAV:   1    -0.608994247755E+02   -0.77429E-02   -0.26567E+00   384   0.102E+01    0.545E-01
DAV:   2    -0.608973170254E+02    0.21078E-02   -0.58056E-02   416   0.152E+00    0.301E-01
DAV:   3    -0.608946283476E+02    0.26887E-02   -0.91507E-03   528   0.612E-01    0.909E-02
DAV:   4    -0.608945833871E+02    0.44961E-04   -0.50581E-04   480   0.146E-01
  70 F= -.60894583E+02 E0= -.60894578E+02  d E =-.967446E-01
 curvature:  -1.66 expect dE=-0.356E+00 dE for cont linesearch -0.602E-06
 trial: gam= 0.39514 g(F)=  0.183E+00 g(S)=  0.315E-01 ort =-0.105E-02 (trialstep = 0.219E+00)
 search vector abs. value=  0.684E+00
 bond charge predicted
       N       E                     dE             d eps       ncg     rms          rms(c)
DAV:   1    -0.609405969568E+02   -0.45969E-01   -0.36378E+00   384   0.127E+01    0.652E-01
DAV:   2    -0.609348125512E+02    0.57844E-02   -0.83272E-02   496   0.192E+00    0.361E-01
DAV:   3    -0.609306747661E+02    0.41378E-02   -0.16937E-02   504   0.807E-01    0.126E-01
DAV:   4    -0.609306745396E+02    0.22652E-06   -0.12806E-03   456   0.240E-01    0.647E-02
DAV:   5    -0.609308204187E+02   -0.14588E-03   -0.25433E-04   272   0.966E-02    0.219E-02
DAV:   6    -0.609309726153E+02   -0.15220E-03   -0.58166E-05   288   0.559E-02    0.101E-02
DAV:   7    -0.609311582067E+02   -0.18559E-03   -0.74619E-05   288   0.455E-02    0.846E-03
DAV:   8    -0.609312502623E+02   -0.92056E-04   -0.28077E-05   336   0.315E-02
  71 F= -.60931250E+02 E0= -.60931247E+02  d E =-.366669E-01
 trial-energy change:   -0.036667  1 .order   -0.036881   -0.047103   -0.026659
 step:   0.5057(harm=  0.5057)  dis= 0.04256  next Energy=   -60.948846 (dE=-0.543E-01)
 bond charge predicted
       N       E                     dE             d eps       ncg     rms          rms(c)
DAV:   1    -0.609637960327E+02   -0.32638E-01   -0.61818E+00   384   0.166E+01    0.856E-01
DAV:   2    -0.609545179551E+02    0.92781E-02   -0.14173E-01   432   0.252E+00    0.470E-01
DAV:   3    -0.609476778310E+02    0.68401E-02   -0.28333E-02   472   0.105E+00    0.165E-01
DAV:   4    -0.609475013084E+02    0.17652E-03   -0.21239E-03   472   0.308E-01    0.840E-02
DAV:   5    -0.609475694666E+02   -0.68158E-04   -0.44681E-04   432   0.123E-01
  72 F= -.60947569E+02 E0= -.60947568E+02  d E =-.529861E-01
 curvature:  -0.81 expect dE=-0.162E+00 dE for cont linesearch -0.447E-05
 trial: gam= 0.84166 g(F)=  0.175E+00 g(S)=  0.266E-01 ort =-0.195E-02 (trialstep = 0.277E+00)
 search vector abs. value=  0.683E+00
 bond charge predicted
       N       E                     dE             d eps       ncg     rms          rms(c)
DAV:   1    -0.610098264609E+02   -0.62325E-01   -0.54101E+00   384   0.158E+01    0.888E-01
DAV:   2    -0.609916908365E+02    0.18136E-01   -0.13517E-01   480   0.241E+00    0.475E-01
DAV:   3    -0.609832604641E+02    0.84304E-02   -0.31119E-02   504   0.101E+00    0.185E-01
DAV:   4    -0.609833333965E+02   -0.72932E-04   -0.19722E-03   416   0.283E-01    0.882E-02
DAV:   5    -0.609835385668E+02   -0.20517E-03   -0.36462E-04   320   0.113E-01    0.233E-02
DAV:   6    -0.609837385123E+02   -0.19995E-03   -0.77724E-05   288   0.642E-02    0.115E-02
DAV:   7    -0.609839663905E+02   -0.22788E-03   -0.88108E-05   272   0.488E-02    0.997E-03
DAV:   8    -0.609841256055E+02   -0.15921E-03   -0.67444E-05   320   0.421E-02    0.508E-03
DAV:   9    -0.609841923893E+02   -0.66784E-04   -0.45189E-05   336   0.285E-02
  73 F= -.60984192E+02 E0= -.60984191E+02  d E =-.366229E-01
 trial-energy change:   -0.036623  1 .order   -0.036510   -0.055225   -0.017795
 step:   0.4083(harm=  0.4083)  dis= 0.02421  next Energy=   -60.988310 (dE=-0.407E-01)
 bond charge predicted
       N       E                     dE             d eps       ncg     rms          rms(c)
DAV:   1    -0.609943416064E+02   -0.10216E-01   -0.12271E+00   384   0.754E+00    0.418E-01
DAV:   2    -0.609904540461E+02    0.38876E-02   -0.30452E-02   448   0.114E+00    0.224E-01
DAV:   3    -0.609884915193E+02    0.19625E-02   -0.73283E-03   472   0.482E-01    0.827E-02
DAV:   4    -0.609884650603E+02    0.26459E-04   -0.44472E-04   488   0.134E-01
  74 F= -.60988465E+02 E0= -.60988464E+02  d E =-.408956E-01
 curvature:  -0.70 expect dE=-0.119E+00 dE for cont linesearch -0.537E-04
 trial: gam= 0.76319 g(F)=  0.146E+00 g(S)=  0.239E-01 ort = 0.724E-02 (trialstep = 0.303E+00)
 search vector abs. value=  0.579E+00
 bond charge predicted
       N       E                     dE             d eps       ncg     rms          rms(c)
DAV:   1    -0.610636704144E+02   -0.75179E-01   -0.42262E+00   448   0.142E+01    0.936E-01
DAV:   2    -0.610397999744E+02    0.23870E-01   -0.78495E-02   480   0.179E+00    0.469E-01
DAV:   3    -0.610323701150E+02    0.74299E-02   -0.32040E-02   504   0.102E+00    0.135E-01
DAV:   4    -0.610323615601E+02    0.85550E-05   -0.20459E-03   424   0.285E-01    0.656E-02
DAV:   5    -0.610325064170E+02   -0.14486E-03   -0.32153E-04   288   0.107E-01    0.216E-02
DAV:   6    -0.610326853959E+02   -0.17898E-03   -0.54877E-05   288   0.554E-02    0.110E-02
DAV:   7    -0.610328978641E+02   -0.21247E-03   -0.70780E-05   280   0.455E-02    0.761E-03
DAV:   8    -0.610330015973E+02   -0.10373E-03   -0.31703E-05   344   0.335E-02    0.384E-03
DAV:   9    -0.610330846216E+02   -0.83024E-04   -0.48770E-05   312   0.262E-02
  75 F= -.61033085E+02 E0= -.61033084E+02  d E =-.446196E-01
 trial-energy change:   -0.044620  1 .order   -0.045182   -0.053146   -0.037217
 step:   1.0111(harm=  1.0111)  dis= 0.06274  next Energy=   -61.077125 (dE=-0.887E-01)
 bond charge predicted
       N       E                     dE             d eps       ncg     rms          rms(c)
DAV:   1    -0.612527079326E+02   -0.21971E+00   -0.23139E+01   448   0.329E+01    0.227E+00
DAV:   2    -0.611178536839E+02    0.13485E+00   -0.46919E-01   472   0.421E+00    0.111E+00
DAV:   3    -0.610780151556E+02    0.39839E-01   -0.16920E-01   488   0.238E+00    0.334E-01
DAV:   4    -0.610772591306E+02    0.75602E-03   -0.11070E-02   432   0.660E-01    0.158E-01
DAV:   5    -0.610773952315E+02   -0.13610E-03   -0.17362E-03   416   0.242E-01    0.539E-02
DAV:   6    -0.610778082425E+02   -0.41301E-03   -0.19101E-04   256   0.104E-01    0.248E-02
DAV:   7    -0.610782671097E+02   -0.45887E-03   -0.24117E-04   304   0.843E-02    0.156E-02
DAV:   8    -0.610785143372E+02   -0.24723E-03   -0.12425E-04   320   0.717E-02    0.884E-03
DAV:   9    -0.610786814239E+02   -0.16709E-03   -0.13489E-04   320   0.487E-02    0.773E-03
DAV:  10    -0.610787067188E+02   -0.25295E-04   -0.25306E-05   344   0.289E-02
  76 F= -.61078707E+02 E0= -.61078706E+02  d E =-.902417E-01
 curvature:  -1.67 expect dE=-0.529E+00 dE for cont linesearch -0.915E-04
 trial: gam= 1.85530 g(F)=  0.300E+00 g(S)=  0.167E-01 ort = 0.563E-02 (trialstep = 0.110E+00)
 search vector abs. value=  0.233E+01
 bond charge predicted
       N       E                     dE             d eps       ncg     rms          rms(c)
DAV:   1    -0.611256703381E+02   -0.46989E-01   -0.24069E+00   448   0.107E+01    0.665E-01
DAV:   2    -0.611138997669E+02    0.11771E-01   -0.43982E-02   400   0.135E+00    0.338E-01
DAV:   3    -0.611098349700E+02    0.40648E-02   -0.16413E-02   472   0.729E-01    0.939E-02
DAV:   4    -0.611097675266E+02    0.67443E-04   -0.89440E-04   472   0.192E-01
  77 F= -.61109768E+02 E0= -.61109767E+02  d E =-.310608E-01
 ZBRENT: can't locate minimum, use default step
 trial-energy change:   -0.031061  1 .order   -0.031657   -0.036174   -0.027140
 step:   0.4417(harm=  0.4422)  dis= 0.05689  next Energy=   -61.151131 (dE=-0.724E-01)
 bond charge predicted
       N       E                     dE             d eps       ncg     rms          rms(c)
DAV:   1    -0.612913874027E+02   -0.18155E+00   -0.21576E+01   448   0.316E+01    0.206E+00
DAV:   2    -0.611790771362E+02    0.11231E+00   -0.43016E-01   472   0.402E+00    0.103E+00
DAV:   3    -0.611442152498E+02    0.34862E-01   -0.13973E-01   496   0.217E+00    0.305E-01
DAV:   4    -0.611437405144E+02    0.47474E-03   -0.81953E-03   448   0.572E-01    0.145E-01
DAV:   5    -0.611439915435E+02   -0.25103E-03   -0.11841E-03   424   0.205E-01    0.491E-02
DAV:   6    -0.611444438661E+02   -0.45232E-03   -0.18778E-04   280   0.930E-02    0.212E-02
DAV:   7    -0.611448826787E+02   -0.43881E-03   -0.20505E-04   336   0.724E-02    0.151E-02
DAV:   8    -0.611451535031E+02   -0.27082E-03   -0.16453E-04   376   0.647E-02    0.861E-03
DAV:   9    -0.611452292987E+02   -0.75796E-04   -0.70050E-05   336   0.382E-02
  78 F= -.61145229E+02 E0= -.61145229E+02  d E =-.665226E-01
 curvature:  -1.57 expect dE=-0.424E+00 dE for cont linesearch -0.570E-03
 trial: gam= 0.95441 g(F)=  0.249E+00 g(S)=  0.211E-01 ort =-0.291E-01 (trialstep = 0.176E+00)
 search vector abs. value=  0.234E+01
 bond charge predicted
       N       E                     dE             d eps       ncg     rms          rms(c)
DAV:   1    -0.612163745133E+02   -0.71221E-01   -0.62036E+00   448   0.169E+01    0.101E+00
DAV:   2    -0.611894574274E+02    0.26917E-01   -0.10625E-01   432   0.204E+00    0.514E-01
DAV:   3    -0.611803815875E+02    0.90758E-02   -0.33909E-02   472   0.105E+00    0.157E-01
DAV:   4    -0.611801161172E+02    0.26547E-03   -0.21114E-03   488   0.294E-01    0.756E-02
DAV:   5    -0.611801449255E+02   -0.28808E-04   -0.31578E-04   320   0.108E-01
  79 F= -.61180145E+02 E0= -.61180144E+02  d E =-.349156E-01
 trial-energy change:   -0.034916  1 .order   -0.035570   -0.042613   -0.028527
 step:   0.5330(harm=  0.5330)  dis= 0.06806  next Energy=   -61.209686 (dE=-0.645E-01)
 bond charge predicted
       N       E                     dE             d eps       ncg     rms          rms(c)
DAV:   1    -0.613408458465E+02   -0.16073E+00   -0.25263E+01   384   0.339E+01    0.208E+00
DAV:   2    -0.612442817403E+02    0.96564E-01   -0.64640E-01   432   0.517E+00    0.108E+00
DAV:   3    -0.612073612889E+02    0.36920E-01   -0.13506E-01   504   0.218E+00    0.364E-01
DAV:   4    -0.612060195179E+02    0.13418E-02   -0.97647E-03   464   0.640E-01    0.164E-01
DAV:   5    -0.612061560557E+02   -0.13654E-03   -0.15037E-03   448   0.234E-01    0.589E-02
[...]
 bond charge predicted
       N       E                     dE             d eps       ncg     rms          rms(c)
DAV:   1    -0.616214288711E+02   -0.91513E-01   -0.21831E+01   384   0.287E+01    0.177E+00
DAV:   2    -0.615657700690E+02    0.55659E-01   -0.42811E-01   464   0.419E+00    0.978E-01
DAV:   3    -0.615332072341E+02    0.32563E-01   -0.10841E-01   496   0.199E+00    0.269E-01
DAV:   4    -0.615318988001E+02    0.13084E-02   -0.71479E-03   456   0.554E-01    0.133E-01
DAV:   5    -0.615317949238E+02    0.10388E-03   -0.16683E-03   432   0.235E-01    0.458E-02
DAV:   6    -0.615322157179E+02   -0.42079E-03   -0.28880E-04   296   0.118E-01    0.254E-02
DAV:   7    -0.615327431004E+02   -0.52738E-03   -0.30247E-04   328   0.889E-02    0.213E-02
DAV:   8    -0.615331389349E+02   -0.39583E-03   -0.21000E-04   384   0.721E-02    0.115E-02
DAV:   9    -0.615332802604E+02   -0.14133E-03   -0.52642E-05   376   0.425E-02    0.665E-03
DAV:  10    -0.615333992017E+02   -0.11894E-03   -0.31814E-05   352   0.241E-02    0.334E-03
DAV:  11    -0.615334403146E+02   -0.41113E-04   -0.75883E-06   376   0.127E-02
 123 F= -.61533440E+02 E0= -.61533440E+02  d E =-.151558E-01
 curvature:  -7.33 expect dE=-0.383E+00 dE for cont linesearch -0.160E-02
 ZBRENT: interpolating
 opt :   0.4428  next Energy=   -61.534524 (dE=-0.162E-01)
 bond charge predicted
       N       E                     dE             d eps       ncg     rms          rms(c)
DAV:   1    -0.615437970278E+02   -0.10398E-01   -0.22913E+00   384   0.949E+00    0.564E-01
DAV:   2    -0.615383776832E+02    0.54193E-02   -0.46258E-02   488   0.131E+00    0.318E-01
DAV:   3    -0.615346593266E+02    0.37184E-02   -0.12484E-02   504   0.655E-01    0.852E-02
DAV:   4    -0.615344572706E+02    0.20206E-03   -0.79614E-04   464   0.188E-01    0.435E-02
DAV:   5    -0.615343634778E+02    0.93793E-04   -0.17486E-04   320   0.812E-02
 124 F= -.61534363E+02 E0= -.61534363E+02  d E =-.160790E-01
 curvature:  -4.98 expect dE=-0.183E+00 dE for cont linesearch -0.537E-04
 trial: gam= 0.24079 g(F)=  0.297E-01 g(S)=  0.714E-02 ort =-0.470E-02 (trialstep = 0.269E+00)
 search vector abs. value=  0.153E+00
 bond charge predicted
       N       E                     dE             d eps       ncg     rms          rms(c)
DAV:   1    -0.615460984817E+02   -0.11641E-01   -0.10333E+00   384   0.663E+00    0.396E-01
DAV:   2    -0.615439980136E+02    0.21005E-02   -0.20241E-02   496   0.925E-01    0.227E-01
DAV:   3    -0.615426538720E+02    0.13441E-02   -0.51188E-03   472   0.454E-01    0.573E-02
DAV:   4    -0.615425928746E+02    0.60997E-04   -0.40851E-04   504   0.135E-01
 125 F= -.61542593E+02 E0= -.61542593E+02  d E =-.822940E-02
 trial-energy change:   -0.008229  1 .order   -0.007966   -0.009607   -0.006324
 step:   0.7871(harm=  0.7871)  dis= 0.01907  next Energy=   -61.548421 (dE=-0.141E-01)
 bond charge predicted
       N       E                     dE             d eps       ncg     rms          rms(c)
DAV:   1    -0.615629692068E+02   -0.20315E-01   -0.38396E+00   384   0.127E+01    0.768E-01
DAV:   2    -0.615534763791E+02    0.94928E-02   -0.75399E-02   504   0.180E+00    0.439E-01
DAV:   3    -0.615471598287E+02    0.63166E-02   -0.19326E-02   512   0.883E-01    0.113E-01
DAV:   4    -0.615469696555E+02    0.19017E-03   -0.15174E-03   496   0.258E-01    0.545E-02
DAV:   5    -0.615469937516E+02   -0.24096E-04   -0.24595E-04   352   0.101E-01
 126 F= -.61546994E+02 E0= -.61546993E+02  d E =-.126303E-01
 curvature:  -1.69 expect dE=-0.416E-01 dE for cont linesearch -0.694E-04
 trial: gam= 0.75495 g(F)=  0.127E-01 g(S)=  0.120E-01 ort =-0.251E-02 (trialstep = 0.373E+00)
 search vector abs. value=  0.108E+00
 bond charge predicted
       N       E                     dE             d eps       ncg     rms          rms(c)
DAV:   1    -0.615589644711E+02   -0.11995E-01   -0.13494E+00   384   0.776E+00    0.441E-01
DAV:   2    -0.615555335196E+02    0.34310E-02   -0.25048E-02   504   0.106E+00    0.252E-01
DAV:   3    -0.615531992070E+02    0.23343E-02   -0.54985E-03   504   0.429E-01    0.660E-02
DAV:   4    -0.615531786731E+02    0.20534E-04   -0.34192E-04   456   0.123E-01
 127 F= -.61553179E+02 E0= -.61553178E+02  d E =-.618492E-02
 trial-energy change:   -0.006185  1 .order   -0.006696   -0.008487   -0.004906
 step:   0.8830(harm=  0.8830)  dis= 0.01500  next Energy=   -61.557051 (dE=-0.101E-01)
 bond charge predicted
       N       E                     dE             d eps       ncg     rms          rms(c)
DAV:   1    -0.615658776269E+02   -0.12678E-01   -0.25358E+00   384   0.106E+01    0.608E-01
DAV:   2    -0.615594227940E+02    0.64548E-02   -0.47176E-02   504   0.145E+00    0.347E-01
DAV:   3    -0.615550696611E+02    0.43531E-02   -0.10263E-02   504   0.587E-01    0.917E-02
DAV:   4    -0.615549702049E+02    0.99456E-04   -0.65776E-04   472   0.168E-01
 128 F= -.61554970E+02 E0= -.61554969E+02  d E =-.797645E-02
 curvature:  -2.10 expect dE=-0.157E+00 dE for cont linesearch -0.174E-04
 trial: gam= 2.95531 g(F)=  0.685E-01 g(S)=  0.637E-02 ort =-0.949E-03 (trialstep = 0.506E-01)
 search vector abs. value=  0.101E+01
 bond charge predicted
       N       E                     dE             d eps       ncg     rms          rms(c)
DAV:   1    -0.615591309981E+02   -0.40613E-02   -0.22216E-01   384   0.315E+00    0.176E-01
DAV:   2    -0.615585862705E+02    0.54473E-03   -0.41384E-03   536   0.426E-01    0.101E-01
DAV:   3    -0.615582532589E+02    0.33301E-03   -0.75273E-04   416   0.161E-01    0.287E-02
DAV:   4    -0.615583253450E+02   -0.72086E-04   -0.57996E-05   272   0.520E-02
 129 F= -.61558325E+02 E0= -.61558324E+02  d E =-.335514E-02
 ZBRENT: can't locate minimum, use default step
 trial-energy change:   -0.003355  1 .order   -0.003315   -0.003648   -0.002983
 step:   0.2026(harm=  0.2779)  dis= 0.01165  next Energy=   -61.564979 (dE=-0.100E-01)
 bond charge predicted
       N       E                     dE             d eps       ncg     rms          rms(c)
DAV:   1    -0.615726503582E+02   -0.14397E-01   -0.20130E+00   384   0.947E+00    0.534E-01
DAV:   2    -0.615681082398E+02    0.45421E-02   -0.37089E-02   480   0.128E+00    0.301E-01
DAV:   3    -0.615649584699E+02    0.31498E-02   -0.61346E-03   488   0.467E-01    0.832E-02
DAV:   4    -0.615648017540E+02    0.15672E-03   -0.42389E-04   480   0.136E-01    0.333E-02
DAV:   5    -0.615649128764E+02   -0.11112E-03   -0.84111E-05   280   0.570E-02    0.139E-02
DAV:   6    -0.615650922809E+02   -0.17940E-03   -0.40648E-05   312   0.378E-02    0.897E-03
DAV:   7    -0.615653323346E+02   -0.24005E-03   -0.61479E-05   344   0.336E-02    0.589E-03
DAV:   8    -0.615654505205E+02   -0.11819E-03   -0.24457E-05   376   0.209E-02    0.311E-03
DAV:   9    -0.615655273325E+02   -0.76812E-04   -0.15744E-05   368   0.145E-02
 130 F= -.61565527E+02 E0= -.61565526E+02  d E =-.105571E-01
 curvature:  -1.74 expect dE=-0.676E-01 dE for cont linesearch -0.170E-02
 ZBRENT: increasing intervall
 opt :   0.5064  next Energy=   -61.566739 (dE=-0.118E-01)
 bond charge predicted
       N       E                     dE             d eps       ncg     rms          rms(c)
DAV:   1    -0.615980484009E+02   -0.32598E-01   -0.80891E+00   384   0.189E+01    0.109E+00
DAV:   2    -0.615796912022E+02    0.18357E-01   -0.14964E-01   464   0.256E+00    0.613E-01
DAV:   3    -0.615674217128E+02    0.12269E-01   -0.24631E-02   504   0.942E-01    0.168E-01
DAV:   4    -0.615666518273E+02    0.76989E-03   -0.16899E-03   576   0.268E-01    0.656E-02
DAV:   5    -0.615667656146E+02   -0.11379E-03   -0.28043E-04   312   0.103E-01    0.254E-02
DAV:   6    -0.615670314198E+02   -0.26581E-03   -0.87143E-05   320   0.605E-02    0.144E-02
DAV:   7    -0.615673792966E+02   -0.34788E-03   -0.99153E-05   320   0.490E-02    0.926E-03
DAV:   8    -0.615675923075E+02   -0.21301E-03   -0.51478E-05   368   0.331E-02    0.504E-03
DAV:   9    -0.615677255538E+02   -0.13325E-03   -0.31116E-05   368   0.220E-02    0.311E-03
DAV:  10    -0.615678068549E+02   -0.81301E-04   -0.18853E-05   368   0.172E-02
 131 F= -.61567807E+02 E0= -.61567806E+02  d E =-.128366E-01
 curvature:  -1.24 expect dE=-0.869E-01 dE for cont linesearch -0.351E-03
 trial: gam= 0.00000 g(F)=  0.581E-01 g(S)=  0.119E-01 ort =-0.169E-01 (trialstep = 0.142E+00)
 search vector abs. value=  0.700E-01
 bond charge predicted
       N       E                     dE             d eps       ncg     rms          rms(c)
DAV:   1    -0.615756172584E+02   -0.78917E-02   -0.12900E-01   432   0.263E+00    0.138E-01
DAV:   2    -0.615755731624E+02    0.44096E-04   -0.34935E-03   512   0.418E-01    0.817E-02
DAV:   3    -0.615754445399E+02    0.12862E-03   -0.55263E-04   496   0.169E-01    0.264E-02
DAV:   4    -0.615754386408E+02    0.58991E-05   -0.64793E-05   384   0.531E-02
 132 F= -.61575439E+02 E0= -.61575438E+02  d E =-.763179E-02
 trial-energy change:   -0.007632  1 .order   -0.007569   -0.009923   -0.005216
 step:   0.2989(harm=  0.2989)  dis= 0.00798  next Energy=   -61.578265 (dE=-0.105E-01)
 bond charge predicted
       N       E                     dE             d eps       ncg     rms          rms(c)
DAV:   1    -0.615785224300E+02   -0.30779E-02   -0.15821E-01   384   0.292E+00    0.153E-01
DAV:   2    -0.615784997972E+02    0.22633E-04   -0.45681E-03   496   0.466E-01    0.904E-02
DAV:   3    -0.615783383047E+02    0.16149E-03   -0.65949E-04   512   0.185E-01    0.297E-02
DAV:   4    -0.615783296619E+02    0.86428E-05   -0.76796E-05   280   0.581E-02
 133 F= -.61578330E+02 E0= -.61578329E+02  d E =-.105228E-01
 curvature:  -0.15 expect dE=-0.508E-02 dE for cont linesearch -0.741E-06
 trial: gam= 0.49417 g(F)=  0.330E-01 g(S)=  0.974E-03 ort =-0.589E-03 (trialstep = 0.173E+00)
 search vector abs. value=  0.505E-01
 bond charge predicted
       N       E                     dE             d eps       ncg     rms          rms(c)
DAV:   1    -0.615829377775E+02   -0.45995E-02   -0.12132E-01   384   0.253E+00    0.119E-01
DAV:   2    -0.615829070456E+02    0.30732E-04   -0.27752E-03   552   0.353E-01    0.730E-02
DAV:   3    -0.615827934217E+02    0.11362E-03   -0.27735E-04   376   0.127E-01    0.234E-02
DAV:   4    -0.615827913746E+02    0.20470E-05   -0.66470E-05   264   0.564E-02
 134 F= -.61582791E+02 E0= -.61582791E+02  d E =-.446171E-02
 trial-energy change:   -0.004462  1 .order   -0.004451   -0.005838   -0.003063
 step:   0.3645(harm=  0.3645)  dis= 0.00722  next Energy=   -61.584472 (dE=-0.614E-02)
 bond charge predicted
       N       E                     dE             d eps       ncg     rms          rms(c)
DAV:   1    -0.615846023843E+02   -0.18090E-02   -0.14808E-01   384   0.279E+00    0.131E-01
DAV:   2    -0.615845728992E+02    0.29485E-04   -0.33828E-03   552   0.391E-01    0.807E-02
DAV:   3    -0.615844387914E+02    0.13411E-03   -0.34625E-04   432   0.139E-01    0.268E-02
DAV:   4    -0.615844354408E+02    0.33506E-05   -0.65310E-05   248   0.534E-02
 135 F= -.61584435E+02 E0= -.61584435E+02  d E =-.610578E-02
 curvature:  -0.27 expect dE=-0.551E-02 dE for cont linesearch -0.211E-05
 trial: gam= 0.60309 g(F)=  0.139E-01 g(S)=  0.626E-02 ort =-0.625E-03 (trialstep = 0.211E+00)
 search vector abs. value=  0.378E-01
 bond charge predicted
       N       E                     dE             d eps       ncg     rms          rms(c)
DAV:   1    -0.615877115606E+02   -0.32728E-02   -0.13999E-01   384   0.266E+00    0.107E-01
DAV:   2    -0.615876914694E+02    0.20091E-04   -0.26279E-03   544   0.355E-01    0.697E-02
DAV:   3    -0.615875907573E+02    0.10071E-03   -0.26818E-04   384   0.112E-01    0.290E-02
DAV:   4    -0.615875858638E+02    0.48935E-05   -0.56785E-05   368   0.540E-02
 136 F= -.61587586E+02 E0= -.61587585E+02  d E =-.315042E-02
 trial-energy change:   -0.003150  1 .order   -0.003164   -0.004187   -0.002140
 step:   0.4326(harm=  0.4326)  dis= 0.00974  next Energy=   -61.588719 (dE=-0.428E-02)
 bond charge predicted
       N       E                     dE             d eps       ncg     rms          rms(c)
DAV:   1    -0.615888262170E+02   -0.12355E-02   -0.15271E-01   384   0.278E+00    0.112E-01
DAV:   2    -0.615888036052E+02    0.22612E-04   -0.28672E-03   528   0.371E-01    0.726E-02
DAV:   3    -0.615886906284E+02    0.11298E-03   -0.29142E-04   416   0.117E-01    0.314E-02
DAV:   4    -0.615886829595E+02    0.76689E-05   -0.56119E-05   384   0.531E-02
 137 F= -.61588683E+02 E0= -.61588682E+02  d E =-.424752E-02
 curvature:  -0.41 expect dE=-0.249E-02 dE for cont linesearch -0.116E-06
 trial: gam= 0.26471 g(F)=  0.548E-02 g(S)=  0.556E-03 ort = 0.103E-03 (trialstep = 0.256E+00)
 search vector abs. value=  0.874E-02
 bond charge predicted
       N       E                     dE             d eps       ncg     rms          rms(c)
DAV:   1    -0.615899734761E+02   -0.12828E-02   -0.51472E-02   392   0.159E+00    0.644E-02
DAV:   2    -0.615899708913E+02    0.25847E-05   -0.10308E-03   496   0.237E-01    0.388E-02
DAV:   3    -0.615899351853E+02    0.35706E-04   -0.12436E-04   376   0.759E-02
 138 F= -.61589935E+02 E0= -.61589935E+02  d E =-.125223E-02
 trial-energy change:   -0.001252  1 .order   -0.001259   -0.001552   -0.000966
 step:   0.6778(harm=  0.6778)  dis= 0.00605  next Energy=   -61.590739 (dE=-0.206E-02)
 bond charge predicted
       N       E                     dE             d eps       ncg     rms          rms(c)
DAV:   1    -0.615908455420E+02   -0.87465E-03   -0.14043E-01   384   0.263E+00    0.109E-01
DAV:   2    -0.615908372504E+02    0.82916E-05   -0.28255E-03   496   0.390E-01    0.664E-02
DAV:   3    -0.615907383659E+02    0.98885E-04   -0.39127E-04   504   0.128E-01
 139 F= -.61590738E+02 E0= -.61590738E+02  d E =-.205541E-02
 curvature:  -0.49 expect dE=-0.418E-02 dE for cont linesearch -0.305E-06
 trial: gam= 1.41954 g(F)=  0.706E-02 g(S)=  0.151E-02 ort = 0.739E-04 (trialstep = 0.113E+00)
 search vector abs. value=  0.264E-01
 bond charge predicted
       N       E                     dE             d eps       ncg     rms          rms(c)
DAV:   1    -0.615916733306E+02   -0.83608E-03   -0.29556E-02   400   0.120E+00    0.516E-02
DAV:   2    -0.615916727985E+02    0.53209E-06   -0.50545E-04   512   0.152E-01
 140 F= -.61591673E+02 E0= -.61591672E+02  d E =-.934433E-03
 ZBRENT: can't locate minimum, use default step
 trial-energy change:   -0.000934  1 .order   -0.000936   -0.000977   -0.000894
 step:   0.4506(harm=  1.3301)  dis= 0.00666  next Energy=   -61.596507 (dE=-0.577E-02)
 bond charge predicted
       N       E                     dE             d eps       ncg     rms          rms(c)
DAV:   1    -0.615939980549E+02   -0.23247E-02   -0.26393E-01   384   0.357E+00    0.144E-01
DAV:   2    -0.615940320736E+02   -0.34019E-04   -0.45909E-03   536   0.459E-01    0.867E-02
DAV:   3    -0.615939023148E+02    0.12976E-03   -0.34832E-04   472   0.133E-01    0.295E-02
DAV:   4    -0.615939004098E+02    0.19050E-05   -0.54889E-05   344   0.523E-02
 141 F= -.61593900E+02 E0= -.61593900E+02  d E =-.316204E-02
 curvature:  -0.97 expect dE=-0.525E-02 dE for cont linesearch -0.108E-02
 ZBRENT: increasing intervall
 opt :   1.1266  next Energy=   -61.595857 (dE=-0.512E-02)
 bond charge predicted
       N       E                     dE             d eps       ncg     rms          rms(c)
DAV:   1    -0.615962552509E+02   -0.23529E-02   -0.10597E+00   384   0.715E+00    0.274E-01
DAV:   2    -0.615965160786E+02   -0.26083E-03   -0.18435E-02   536   0.918E-01    0.164E-01
DAV:   3    -0.615960484900E+02    0.46759E-03   -0.13433E-03   488   0.258E-01    0.574E-02
DAV:   4    -0.615960247310E+02    0.23759E-04   -0.18583E-04   408   0.954E-02
 142 F= -.61596025E+02 E0= -.61596024E+02  d E =-.528637E-02
 curvature:  -1.76 expect dE=-0.250E-01 dE for cont linesearch -0.277E-04
 trial: gam= 1.61775 g(F)=  0.132E-01 g(S)=  0.996E-03 ort = 0.645E-03 (trialstep = 0.975E-01)
 search vector abs. value=  0.854E-01
 bond charge predicted
       N       E                     dE             d eps       ncg     rms          rms(c)
DAV:   1    -0.615973036285E+02   -0.12551E-02   -0.72019E-02   384   0.189E+00    0.759E-02
DAV:   2    -0.615973333219E+02   -0.29693E-04   -0.14116E-03   528   0.263E-01    0.479E-02
DAV:   3    -0.615973019149E+02    0.31407E-04   -0.12743E-04   320   0.807E-02
 143 F= -.61597302E+02 E0= -.61597301E+02  d E =-.127718E-02
 trial-energy change:   -0.001277  1 .order   -0.001240   -0.001487   -0.000994
 step:   0.2940(harm=  0.2940)  dis= 0.00591  next Energy=   -61.598266 (dE=-0.224E-02)
 bond charge predicted
       N       E                     dE             d eps       ncg     rms          rms(c)
DAV:   1    -0.615983013633E+02   -0.96804E-03   -0.29016E-01   384   0.380E+00    0.151E-01
DAV:   2    -0.615983998131E+02   -0.98450E-04   -0.56323E-03   528   0.523E-01    0.944E-02
DAV:   3    -0.615982441309E+02    0.15568E-03   -0.52552E-04   504   0.154E-01    0.323E-02
DAV:   4    -0.615982449293E+02   -0.79836E-06   -0.63488E-05   328   0.558E-02
 144 F= -.61598245E+02 E0= -.61598244E+02  d E =-.222020E-02
 curvature:  -0.82 expect dE=-0.673E-02 dE for cont linesearch -0.420E-05
 trial: gam= 0.74955 g(F)=  0.798E-02 g(S)=  0.190E-03 ort =-0.660E-03 (trialstep = 0.137E+00)
 search vector abs. value=  0.552E-01
 bond charge predicted
       N       E                     dE             d eps       ncg     rms          rms(c)
DAV:   1    -0.615991894061E+02   -0.94528E-03   -0.84982E-02   384   0.208E+00    0.797E-02
DAV:   2    -0.615992246937E+02   -0.35288E-04   -0.14238E-03   568   0.261E-01    0.493E-02
DAV:   3    -0.615991888814E+02    0.35812E-04   -0.10659E-04   296   0.763E-02
 145 F= -.61599189E+02 E0= -.61599188E+02  d E =-.943952E-03
 ZBRENT: can't locate minimum, use default step
 trial-energy change:   -0.000944  1 .order   -0.000929   -0.001051   -0.000807
 step:   0.5473(harm=  0.5894)  dis= 0.00970  next Energy=   -61.600508 (dE=-0.226E-02)
 bond charge predicted
       N       E                     dE             d eps       ncg     rms          rms(c)
DAV:   1    -0.616005738213E+02   -0.13491E-02   -0.76402E-01   384   0.622E+00    0.239E-01
DAV:   2    -0.616008652044E+02   -0.29138E-03   -0.12850E-02   568   0.778E-01    0.147E-01
DAV:   3    -0.616005111427E+02    0.35406E-03   -0.99240E-04   480   0.218E-01    0.508E-02
DAV:   4    -0.616004778814E+02    0.33261E-04   -0.15477E-04   376   0.868E-02
 146 F= -.61600478E+02 E0= -.61600477E+02  d E =-.223295E-02
 curvature:  -2.10 expect dE=-0.105E-01 dE for cont linesearch -0.158E-04
 trial: gam= 0.20839 g(F)=  0.465E-02 g(S)=  0.370E-03 ort = 0.644E-03 (trialstep = 0.219E+00)
 search vector abs. value=  0.768E-02
 bond charge predicted
       N       E                     dE             d eps       ncg     rms          rms(c)
DAV:   1    -0.616012407145E+02   -0.72957E-03   -0.42316E-02   384   0.142E+00    0.528E-02
DAV:   2    -0.616012843346E+02   -0.43620E-04   -0.96991E-04   512   0.216E-01
 147 F= -.61601284E+02 E0= -.61601284E+02  d E =-.806453E-03
 trial-energy change:   -0.000806  1 .order   -0.000783   -0.001127   -0.000438
 step:   0.3579(harm=  0.3579)  dis= 0.00264  next Energy=   -61.601399 (dE=-0.922E-03)
 bond charge predicted
       N       E                     dE             d eps       ncg     rms          rms(c)
DAV:   1    -0.616013858394E+02   -0.14512E-03   -0.16332E-02   384   0.887E-01    0.437E-02
DAV:   2    -0.616013875838E+02   -0.17444E-05   -0.32799E-04   496   0.132E-01
 148 F= -.61601388E+02 E0= -.61601387E+02  d E =-.909702E-03
 curvature:  -0.27 expect dE=-0.121E-02 dE for cont linesearch -0.605E-06
 trial: gam= 0.95997 g(F)=  0.403E-02 g(S)=  0.491E-03 ort =-0.132E-03 (trialstep = 0.167E+00)
 search vector abs. value=  0.113E-01
 reached required accuracy - stopping structural energy minimisation
 writing wavefunctions
Sun Mar  6 20:15:44 CST 2022
