Sun Mar  6 19:51:01 CST 2022
 running on   48 total cores
 distrk:  each k-point on   48 cores,    1 groups
 distr:  one band on   24 cores,    2 groups
 using from now: INCAR     
 vasp.5.3.5 31Mar14 (build Jan 11 2016 19:50:55) complex                        
  
 POSCAR found type information on POSCAR  B  C  Na
 POSCAR found :  3 types and       9 ions
 scaLAPACK will be used

 ----------------------------------------------------------------------------- 
|                                                                             |
|           W    W    AA    RRRRR   N    N  II  N    N   GGGG   !!!           |
|           W    W   A  A   R    R  NN   N  II  NN   N  G    G  !!!           |
|           W    W  A    A  R    R  N N  N  II  N N  N  G       !!!           |
|           W WW W  AAAAAA  RRRRR   N  N N  II  N  N N  G  GGG   !            |
|           WW  WW  A    A  R   R   N   NN  II  N   NN  G    G                |
|           W    W  A    A  R    R  N    N  II  N    N   GGGG   !!!           |
|                                                                             |
|      For optimal performance we recommend to set                            |
|        NCORE= 4 - approx SQRT( number of cores)                             |
|      NCORE specifies how many cores store one orbital (NPAR=cpu/NCORE).     |
|      This setting can  greatly improve the performance of VASP for DFT.     |
|      The default, NPAR=number of cores might be grossly inefficient         |
|      on modern multi-core architectures or massively parallel machines.     |
|      Do your own testing !!!!                                               |
|      Unfortunately you need to use the default for GW and RPA calculations. |
|      (for HF NCORE is supported but not extensively tested yet)             |
|                                                                             |
 ----------------------------------------------------------------------------- 

 LDA part: xc-table for Pade appr. of Perdew
 POSCAR, INCAR and KPOINTS ok, starting setup
 WARNING: small aliasing (wrap around) errors must be expected
 FFT: planning ...
 WAVECAR not read
 entering main loop
       N       E                     dE             d eps       ncg     rms          rms(c)
DAV:   1     0.262814419472E+03    0.26281E+03   -0.11740E+04   488   0.829E+02
DAV:   2    -0.608694467294E+01   -0.26890E+03   -0.25989E+03   600   0.221E+02
DAV:   3    -0.651065760875E+02   -0.59020E+02   -0.58708E+02   488   0.104E+02
DAV:   4    -0.679461534656E+02   -0.28396E+01   -0.28202E+01   520   0.309E+01
DAV:   5    -0.680291736217E+02   -0.83020E-01   -0.82741E-01   504   0.475E+00    0.130E+01
DAV:   6    -0.614900519210E+02    0.65391E+01   -0.13136E+01   464   0.259E+01    0.689E+00
DAV:   7    -0.598070296927E+02    0.16830E+01   -0.53069E+00   528   0.121E+01    0.319E+00
DAV:   8    -0.594952491054E+02    0.31178E+00   -0.92564E-01   584   0.467E+00    0.138E+00
DAV:   9    -0.593744513492E+02    0.12080E+00   -0.14639E-01   520   0.188E+00    0.511E-01
DAV:  10    -0.593330124796E+02    0.41439E-01   -0.43114E-02   496   0.105E+00    0.277E-01
DAV:  11    -0.593169960969E+02    0.16016E-01   -0.15437E-02   488   0.593E-01    0.180E-01
DAV:  12    -0.593162077218E+02    0.78838E-03   -0.63591E-03   528   0.395E-01    0.979E-02
DAV:  13    -0.593174985653E+02   -0.12908E-02   -0.22130E-03   464   0.185E-01    0.612E-02
DAV:  14    -0.593204904332E+02   -0.29919E-02   -0.12000E-03   400   0.153E-01    0.419E-02
DAV:  15    -0.593222651383E+02   -0.17747E-02   -0.53419E-04   352   0.695E-02    0.288E-02
DAV:  16    -0.593250288929E+02   -0.27638E-02   -0.16503E-03   384   0.856E-02    0.154E-02
DAV:  17    -0.593260019999E+02   -0.97311E-03   -0.38850E-04   320   0.509E-02    0.124E-02
DAV:  18    -0.593263186820E+02   -0.31668E-03   -0.92316E-05   336   0.319E-02    0.721E-03
DAV:  19    -0.593265843297E+02   -0.26565E-03   -0.99256E-05   320   0.264E-02    0.277E-03
DAV:  20    -0.593266266946E+02   -0.42365E-04   -0.86038E-06   352   0.131E-02
   1 F= -.59326627E+02 E0= -.59303977E+02  d E =-.593266E+02
 curvature:   0.00 expect dE= 0.000E+00 dE for cont linesearch  0.000E+00
 trial: gam= 0.00000 g(F)=  0.111E+01 g(S)=  0.304E+00 ort = 0.000E+00 (trialstep = 0.100E+01)
 search vector abs. value=  0.141E+01
 bond charge predicted
       N       E                     dE             d eps       ncg     rms          rms(c)
DAV:   1    -0.589547807485E+02    0.37180E+00   -0.18245E+02   384   0.108E+02    0.375E+00
DAV:   2    -0.592452682655E+02   -0.29049E+00   -0.62383E+00   512   0.167E+01    0.235E+00
DAV:   3    -0.591366266825E+02    0.10864E+00   -0.38964E-01   576   0.402E+00    0.124E+00
DAV:   4    -0.591093655692E+02    0.27261E-01   -0.76601E-02   512   0.192E+00    0.350E-01
DAV:   5    -0.591078681017E+02    0.14975E-02   -0.12287E-02   536   0.661E-01    0.122E-01
DAV:   6    -0.591075438972E+02    0.32420E-03   -0.13324E-03   544   0.240E-01    0.624E-02
DAV:   7    -0.591075472579E+02   -0.33606E-05   -0.36196E-04   496   0.116E-01
   2 F= -.59107547E+02 E0= -.59085836E+02  d E =0.219079E+00
 trial-energy change:    0.219079  1 .order    0.151353   -1.412002    1.714708
 step:   0.4199(harm=  0.4516)  dis= 0.05916  next Energy=   -59.618086 (dE=-0.291E+00)
 bond charge predicted
       N       E                     dE             d eps       ncg     rms          rms(c)
DAV:   1    -0.596471119371E+02   -0.53957E+00   -0.53805E+01   384   0.485E+01    0.229E+00
DAV:   2    -0.596631613297E+02   -0.16049E-01   -0.15173E+00   528   0.797E+00    0.135E+00
DAV:   3    -0.596229183998E+02    0.40243E-01   -0.15390E-01   560   0.276E+00    0.502E-01
DAV:   4    -0.596197482596E+02    0.31701E-02   -0.21878E-02   488   0.933E-01    0.202E-01
DAV:   5    -0.596194089248E+02    0.33933E-03   -0.34278E-03   544   0.374E-01    0.778E-02
DAV:   6    -0.596194260947E+02   -0.17170E-04   -0.40443E-04   512   0.127E-01
   3 F= -.59619426E+02 E0= -.59599949E+02  d E =-.292799E+00
 curvature:  -0.23 expect dE=-0.215E+00 dE for cont linesearch -0.861E-04
 trial: gam= 0.69271 g(F)=  0.913E+00 g(S)=  0.419E-01 ort =-0.232E-01 (trialstep = 0.780E+00)
 search vector abs. value=  0.160E+01
 bond charge predicted
       N       E                     dE             d eps       ncg     rms          rms(c)
DAV:   1    -0.595531010657E+02    0.66308E-01   -0.13669E+02   416   0.856E+01    0.271E+00
DAV:   2    -0.597310818034E+02   -0.17798E+00   -0.38977E+00   528   0.129E+01    0.160E+00
DAV:   3    -0.596608087310E+02    0.70273E-01   -0.35911E-01   544   0.367E+00    0.547E-01
DAV:   4    -0.596550569386E+02    0.57518E-02   -0.30487E-02   512   0.108E+00    0.269E-01
DAV:   5    -0.596539331254E+02    0.11238E-02   -0.62948E-03   496   0.407E-01    0.105E-01
DAV:   6    -0.596536442650E+02    0.28886E-03   -0.67803E-04   496   0.147E-01    0.478E-02
DAV:   7    -0.596537275612E+02   -0.83296E-04   -0.20624E-04   384   0.815E-02
   4 F= -.59653728E+02 E0= -.59620861E+02  d E =-.343015E-01
 trial-energy change:   -0.034301  1 .order   -0.065082   -0.732254    0.602090
 step:   0.4011(harm=  0.4281)  dis= 0.06963  next Energy=   -59.803504 (dE=-0.184E+00)
 bond charge predicted
       N       E                     dE             d eps       ncg     rms          rms(c)
DAV:   1    -0.598094336764E+02   -0.15579E+00   -0.28095E+01   384   0.333E+01    0.143E+00
DAV:   2    -0.598214706881E+02   -0.12037E-01   -0.70783E-01   544   0.544E+00    0.807E-01
DAV:   3    -0.598068049037E+02    0.14666E-01   -0.63017E-02   552   0.165E+00    0.349E-01
DAV:   4    -0.598053402023E+02    0.14647E-02   -0.62507E-03   496   0.472E-01    0.157E-01
DAV:   5    -0.598051216532E+02    0.21855E-03   -0.10040E-03   504   0.181E-01    0.437E-02
DAV:   6    -0.598051723624E+02   -0.50709E-04   -0.12422E-04   368   0.681E-02
   5 F= -.59805172E+02 E0= -.59778611E+02  d E =-.185746E+00
 curvature:  -0.36 expect dE=-0.662E-01 dE for cont linesearch -0.320E-04
 trial: gam= 0.23651 g(F)=  0.126E+00 g(S)=  0.565E-01 ort =-0.119E-01 (trialstep = 0.704E+00)
 search vector abs. value=  0.266E+00
 bond charge predicted
       N       E                     dE             d eps       ncg     rms          rms(c)
DAV:   1    -0.598486175527E+02   -0.43496E-01   -0.15570E+01   384   0.248E+01    0.103E+00
DAV:   2    -0.598572922276E+02   -0.86747E-02   -0.39664E-01   544   0.412E+00    0.619E-01
DAV:   3    -0.598503246700E+02    0.69676E-02   -0.30422E-02   528   0.116E+00    0.261E-01
DAV:   4    -0.598494105825E+02    0.91409E-03   -0.52520E-03   512   0.432E-01    0.980E-02
DAV:   5    -0.598492952666E+02    0.11532E-03   -0.78175E-04   496   0.172E-01    0.395E-02
DAV:   6    -0.598492959075E+02   -0.64086E-06   -0.11640E-04   352   0.646E-02
   6 F= -.59849296E+02 E0= -.59817366E+02  d E =-.441235E-01
 trial-energy change:   -0.044124  1 .order   -0.043151   -0.126495    0.040193
 step:   0.5389(harm=  0.5344)  dis= 0.03770  next Energy=   -59.854003 (dE=-0.488E-01)
 bond charge predicted
       N       E                     dE             d eps       ncg     rms          rms(c)
DAV:   1    -0.598542763440E+02   -0.49811E-02   -0.85033E-01   384   0.571E+00    0.241E-01
DAV:   2    -0.598545076377E+02   -0.23129E-03   -0.20025E-02   560   0.900E-01    0.148E-01
DAV:   3    -0.598541708663E+02    0.33677E-03   -0.15654E-03   552   0.258E-01    0.615E-02
DAV:   4    -0.598541455100E+02    0.25356E-04   -0.25423E-04   432   0.106E-01
   7 F= -.59854146E+02 E0= -.59823701E+02  d E =-.489731E-01
 curvature:  -0.40 expect dE=-0.450E-01 dE for cont linesearch -0.147E-06
 trial: gam= 0.66181 g(F)=  0.104E+00 g(S)=  0.958E-02 ort =-0.315E-03 (trialstep = 0.671E+00)
 search vector abs. value=  0.230E+00
 bond charge predicted
       N       E                     dE             d eps       ncg     rms          rms(c)
DAV:   1    -0.598225141604E+02    0.31657E-01   -0.13726E+01   384   0.248E+01    0.809E-01
DAV:   2    -0.598393940139E+02   -0.16880E-01   -0.37350E-01   512   0.397E+00    0.533E-01
DAV:   3    -0.598352186912E+02    0.41753E-02   -0.24114E-02   552   0.103E+00    0.332E-01
DAV:   4    -0.598346528962E+02    0.56579E-03   -0.24761E-03   512   0.329E-01    0.142E-01
DAV:   5    -0.598345574989E+02    0.95397E-04   -0.71792E-04   496   0.179E-01
   8 F= -.59834557E+02 E0= -.59800279E+02  d E =0.195880E-01
 trial-energy change:    0.019588  1 .order    0.019383   -0.076144    0.114911
 step:   0.2675(harm=  0.2675)  dis= 0.01653  next Energy=   -59.869319 (dE=-0.152E-01)
 bond charge predicted
       N       E                     dE             d eps       ncg     rms          rms(c)
DAV:   1    -0.598655559177E+02   -0.30903E-01   -0.49095E+00   384   0.146E+01    0.475E-01
DAV:   2    -0.598709579622E+02   -0.54020E-02   -0.12948E-01   512   0.235E+00    0.316E-01
DAV:   3    -0.598693460702E+02    0.16119E-02   -0.99798E-03   544   0.650E-01    0.169E-01
DAV:   4    -0.598692358819E+02    0.11019E-03   -0.93556E-04   512   0.196E-01    0.775E-02
DAV:   5    -0.598692250815E+02    0.10800E-04   -0.15757E-04   352   0.828E-02
   9 F= -.59869225E+02 E0= -.59837058E+02  d E =-.150796E-01
 curvature:  -0.27 expect dE=-0.106E-01 dE for cont linesearch -0.141E-05
 trial: gam= 0.36500 g(F)=  0.305E-01 g(S)=  0.868E-02 ort =-0.109E-02 (trialstep = 0.590E+00)
 search vector abs. value=  0.691E-01
 bond charge predicted
       N       E                     dE             d eps       ncg     rms          rms(c)
DAV:   1    -0.598813245607E+02   -0.12089E-01   -0.28063E+00   384   0.106E+01    0.427E-01
DAV:   2    -0.598809648248E+02    0.35974E-03   -0.69155E-02   496   0.160E+00    0.276E-01
DAV:   3    -0.598796030551E+02    0.13618E-02   -0.47395E-03   512   0.427E-01    0.168E-01
DAV:   4    -0.598792409601E+02    0.36210E-03   -0.12393E-03   512   0.216E-01    0.665E-02
DAV:   5    -0.598792254958E+02    0.15464E-04   -0.20162E-04   400   0.907E-02
  10 F= -.59879225E+02 E0= -.59845778E+02  d E =-.100004E-01
 trial-energy change:   -0.010000  1 .order   -0.010224   -0.022928    0.002480
 step:   0.5328(harm=  0.5328)  dis= 0.01764  next Energy=   -59.879570 (dE=-0.103E-01)
 bond charge predicted
       N       E                     dE             d eps       ncg     rms          rms(c)
DAV:   1    -0.598793706116E+02   -0.12965E-03   -0.26795E-02   384   0.103E+00    0.414E-02
DAV:   2    -0.598793885585E+02   -0.17947E-04   -0.65381E-04   448   0.160E-01
  11 F= -.59879389E+02 E0= -.59845786E+02  d E =-.101635E-01
 curvature:  -0.47 expect dE=-0.111E-01 dE for cont linesearch -0.191E-05
 trial: gam= 0.59064 g(F)=  0.161E-01 g(S)=  0.736E-02 ort = 0.528E-03 (trialstep = 0.579E+00)
 search vector abs. value=  0.482E-01
 bond charge predicted
       N       E                     dE             d eps       ncg     rms          rms(c)
DAV:   1    -0.598960377867E+02   -0.16667E-01   -0.17428E+00   384   0.817E+00    0.520E-01
DAV:   2    -0.598910411233E+02    0.49967E-02   -0.63039E-02   496   0.140E+00    0.315E-01
DAV:   3    -0.598887973481E+02    0.22438E-02   -0.53241E-03   480   0.448E-01    0.169E-01
DAV:   4    -0.598882063518E+02    0.59100E-03   -0.24873E-03   496   0.362E-01    0.439E-02
DAV:   5    -0.598881930077E+02    0.13344E-04   -0.27958E-04   368   0.120E-01
  12 F= -.59888193E+02 E0= -.59854688E+02  d E =-.880445E-02
 trial-energy change:   -0.008804  1 .order   -0.008979   -0.013769   -0.004189
 step:   0.8320(harm=  0.8320)  dis= 0.02268  next Energy=   -59.889283 (dE=-0.989E-02)
 bond charge predicted
       N       E                     dE             d eps       ncg     rms          rms(c)
DAV:   1    -0.598908141334E+02   -0.26078E-02   -0.33604E-01   384   0.360E+00    0.228E-01
DAV:   2    -0.598897849498E+02    0.10292E-02   -0.11843E-02   496   0.613E-01    0.138E-01
DAV:   3    -0.598893771069E+02    0.40784E-03   -0.10166E-03   448   0.194E-01    0.749E-02
DAV:   4    -0.598892724091E+02    0.10470E-03   -0.49951E-04   448   0.159E-01    0.194E-02
DAV:   5    -0.598892894981E+02   -0.17089E-04   -0.46214E-05   272   0.520E-02
  13 F= -.59889289E+02 E0= -.59855567E+02  d E =-.990094E-02
 curvature:  -0.84 expect dE=-0.339E-01 dE for cont linesearch -0.628E-05
 trial: gam= 1.69611 g(F)=  0.339E-01 g(S)=  0.622E-02 ort = 0.599E-03 (trialstep = 0.168E+00)
 search vector abs. value=  0.181E+00
 bond charge predicted
       N       E                     dE             d eps       ncg     rms          rms(c)
DAV:   1    -0.598993536752E+02   -0.10081E-01   -0.52080E-01   384   0.449E+00    0.341E-01
DAV:   2    -0.598962786776E+02    0.30750E-02   -0.21861E-02   496   0.804E-01    0.200E-01
DAV:   3    -0.598953215728E+02    0.95710E-03   -0.20276E-03   480   0.269E-01    0.103E-01
DAV:   4    -0.598950526630E+02    0.26891E-03   -0.96767E-04   480   0.214E-01    0.257E-02
DAV:   5    -0.598950673651E+02   -0.14702E-04   -0.95020E-05   288   0.735E-02
  14 F= -.59895067E+02 E0= -.59861358E+02  d E =-.577787E-02
 trial-energy change:   -0.005778  1 .order   -0.005783   -0.006910   -0.004657
 step:   0.5146(harm=  0.5146)  dis= 0.02497  next Energy=   -59.899888 (dE=-0.106E-01)
 bond charge predicted
       N       E                     dE             d eps       ncg     rms          rms(c)
DAV:   1    -0.599188701196E+02   -0.23817E-01   -0.22241E+00   384   0.923E+00    0.719E-01
DAV:   2    -0.599059432467E+02    0.12927E-01   -0.99455E-02   496   0.168E+00    0.425E-01
DAV:   3    -0.599012737929E+02    0.46695E-02   -0.91132E-03   480   0.575E-01    0.218E-01
DAV:   4    -0.599000708373E+02    0.12030E-02   -0.42953E-03   480   0.456E-01    0.585E-02
DAV:   5    -0.599000702786E+02    0.55875E-06   -0.59192E-04   464   0.165E-01
  15 F= -.59900070E+02 E0= -.59866533E+02  d E =-.107808E-01
 curvature:  -1.13 expect dE=-0.636E-01 dE for cont linesearch -0.575E-05
 trial: gam= 1.46565 g(F)=  0.498E-01 g(S)=  0.647E-02 ort = 0.960E-03 (trialstep = 0.958E-01)
 search vector abs. value=  0.448E+00
 bond charge predicted
       N       E                     dE             d eps       ncg     rms          rms(c)
DAV:   1    -0.599099819735E+02   -0.99111E-02   -0.39878E-01   448   0.391E+00    0.329E-01
DAV:   2    -0.599064665323E+02    0.35154E-02   -0.13164E-02   480   0.580E-01    0.186E-01
DAV:   3    -0.599056124931E+02    0.85404E-03   -0.16542E-03   464   0.241E-01    0.921E-02
DAV:   4    -0.599054014503E+02    0.21104E-03   -0.74266E-04   480   0.165E-01    0.259E-02
DAV:   5    -0.599054435640E+02   -0.42114E-04   -0.70862E-05   272   0.589E-02
  16 F= -.59905444E+02 E0= -.59871653E+02  d E =-.537329E-02
 ZBRENT: can't locate minimum, use default step
 trial-energy change:   -0.005373  1 .order   -0.005258   -0.005526   -0.004991
 step:   0.3833(harm=  0.9896)  dis= 0.02730  next Energy=   -59.928605 (dE=-0.285E-01)
 bond charge predicted
       N       E                     dE             d eps       ncg     rms          rms(c)
DAV:   1    -0.599585943317E+02   -0.53193E-01   -0.35742E+00   448   0.116E+01    0.101E+00
DAV:   2    -0.599280122671E+02    0.30582E-01   -0.14197E-01   480   0.173E+00    0.583E-01
DAV:   3    -0.599190390770E+02    0.89732E-02   -0.15875E-02   448   0.750E-01    0.288E-01
DAV:   4    -0.599168563330E+02    0.21827E-02   -0.70534E-03   496   0.506E-01    0.883E-02
DAV:   5    -0.599168066375E+02    0.49696E-04   -0.11947E-03   504   0.204E-01    0.347E-02
DAV:   6    -0.599168563975E+02   -0.49760E-04   -0.14062E-04   352   0.653E-02
  17 F= -.59916856E+02 E0= -.59883146E+02  d E =-.167861E-01
 curvature:  -2.07 expect dE=-0.766E-01 dE for cont linesearch -0.420E-02
 ZBRENT: increasing intervall
 opt :   0.9582  next Energy=   -59.921541 (dE=-0.215E-01)
 bond charge predicted
       N       E                     dE             d eps       ncg     rms          rms(c)
DAV:   1    -0.600765226468E+02   -0.15972E+00   -0.14183E+01   384   0.231E+01    0.205E+00
DAV:   2    -0.599701826810E+02    0.10634E+00   -0.92700E-01   496   0.439E+00    0.120E+00
DAV:   3    -0.599299552809E+02    0.40227E-01   -0.67975E-02   464   0.160E+00    0.634E-01
DAV:   4    -0.599202323527E+02    0.97229E-02   -0.39191E-02   528   0.126E+00    0.255E-01
DAV:   5    -0.599191482557E+02    0.10841E-02   -0.14004E-02   448   0.591E-01    0.123E-01
DAV:   6    -0.599186922554E+02    0.45600E-03   -0.16740E-03   464   0.197E-01    0.345E-02
DAV:   7    -0.599188563136E+02   -0.16406E-03   -0.13663E-04   368   0.694E-02    0.191E-02
DAV:   8    -0.599191875198E+02   -0.33121E-03   -0.12322E-04   336   0.574E-02    0.993E-03
DAV:   9    -0.599194068947E+02   -0.21937E-03   -0.50207E-05   368   0.353E-02    0.682E-03
DAV:  10    -0.599196363735E+02   -0.22948E-03   -0.71840E-05   320   0.333E-02    0.490E-03
DAV:  11    -0.599197322197E+02   -0.95846E-04   -0.26563E-05   352   0.218E-02
  18 F= -.59919732E+02 E0= -.59886622E+02  d E =-.196619E-01
 curvature:  -2.31 expect dE=-0.433E+00 dE for cont linesearch -0.224E-02
 ZBRENT: bracketing found
 ZBRENT: interpolating
 opt :   0.7232  next Energy=   -59.922178 (dE=-0.221E-01)
 bond charge predicted
       N       E                     dE             d eps       ncg     rms          rms(c)
DAV:   1    -0.599491001403E+02   -0.29464E-01   -0.24910E+00   448   0.100E+01    0.795E-01
DAV:   2    -0.599269237881E+02    0.22176E-01   -0.68014E-02   480   0.149E+00    0.415E-01
DAV:   3    -0.599233466912E+02    0.35771E-02   -0.82105E-03   432   0.554E-01    0.204E-01
DAV:   4    -0.599221324410E+02    0.12143E-02   -0.37823E-03   496   0.355E-01    0.598E-02
DAV:   5    -0.599220322021E+02    0.10024E-03   -0.39020E-04   400   0.122E-01    0.227E-02
DAV:   6    -0.599220267645E+02    0.54376E-05   -0.61224E-05   272   0.529E-02
  19 F= -.59922027E+02 E0= -.59888696E+02  d E =-.219565E-01
 curvature:  -2.53 expect dE=-0.246E+00 dE for cont linesearch -0.809E-05
 trial: gam= 1.85145 g(F)=  0.903E-01 g(S)=  0.734E-02 ort =-0.120E-02 (trialstep = 0.609E-01)
 search vector abs. value=  0.163E+01
 bond charge predicted
       N       E                     dE             d eps       ncg     rms          rms(c)
DAV:   1    -0.599345104556E+02   -0.12478E-01   -0.57928E-01   448   0.476E+00    0.406E-01
DAV:   2    -0.599292857212E+02    0.52247E-02   -0.20548E-02   480   0.697E-01    0.232E-01
DAV:   3    -0.599280619542E+02    0.12238E-02   -0.26059E-03   432   0.297E-01    0.115E-01
DAV:   4    -0.599277668711E+02    0.29508E-03   -0.12035E-03   480   0.209E-01    0.344E-02
DAV:   5    -0.599277445363E+02    0.22335E-04   -0.14560E-04   304   0.806E-02
  20 F= -.59927745E+02 E0= -.59894501E+02  d E =-.571777E-02
 ZBRENT: can't locate minimum, use default step
 trial-energy change:   -0.005718  1 .order   -0.005532   -0.005805   -0.005259
 step:   0.2434(harm=  0.6475)  dis= 0.03152  next Energy=   -59.952905 (dE=-0.309E-01)
 bond charge predicted
       N       E                     dE             d eps       ncg     rms          rms(c)
DAV:   1    -0.600068707101E+02   -0.79104E-01   -0.51967E+00   448   0.141E+01    0.125E+00
DAV:   2    -0.599586383912E+02    0.48232E-01   -0.21943E-01   496   0.208E+00    0.726E-01
DAV:   3    -0.599445412816E+02    0.14097E-01   -0.24987E-02   464   0.931E-01    0.360E-01
DAV:   4    -0.599409737431E+02    0.35675E-02   -0.11129E-02   480   0.636E-01    0.118E-01
DAV:   5    -0.599408452717E+02    0.12847E-03   -0.24415E-03   496   0.283E-01    0.511E-02
DAV:   6    -0.599408398954E+02    0.53763E-05   -0.32586E-04   336   0.950E-02
  21 F= -.59940840E+02 E0= -.59907470E+02  d E =-.188131E-01
 curvature:  -2.90 expect dE=-0.143E+00 dE for cont linesearch -0.797E-02
 ZBRENT: increasing intervall
 opt :   0.6086  next Energy=   -59.958089 (dE=-0.361E-01)
 bond charge predicted
       N       E                     dE             d eps       ncg     rms          rms(c)
DAV:   1    -0.602087713425E+02   -0.26793E+00   -0.20694E+01   384   0.281E+01    0.254E+00
DAV:   2    -0.600335880838E+02    0.17518E+00   -0.14234E+00   496   0.533E+00    0.146E+00
DAV:   3    -0.599730259101E+02    0.60562E-01   -0.10269E-01   464   0.199E+00    0.786E-01
DAV:   4    -0.599574188022E+02    0.15607E-01   -0.60806E-02   536   0.155E+00    0.329E-01
DAV:   5    -0.599562975532E+02    0.11212E-02   -0.27537E-02   464   0.815E-01    0.194E-01
DAV:   6    -0.599547686277E+02    0.15289E-02   -0.42818E-03   480   0.293E-01    0.421E-02
DAV:   7    -0.599550086269E+02   -0.24000E-03   -0.25749E-04   384   0.977E-02    0.243E-02
DAV:   8    -0.599554497034E+02   -0.44108E-03   -0.16253E-04   336   0.681E-02    0.119E-02
DAV:   9    -0.599557748738E+02   -0.32517E-03   -0.97143E-05   360   0.447E-02    0.852E-03
DAV:  10    -0.599560855572E+02   -0.31068E-03   -0.12178E-04   320   0.406E-02    0.599E-03
DAV:  11    -0.599562023050E+02   -0.11675E-03   -0.33524E-05   368   0.250E-02    0.319E-03
DAV:  12    -0.599562402838E+02   -0.37979E-04   -0.80692E-06   288   0.131E-02
  22 F= -.59956240E+02 E0= -.59923192E+02  d E =-.342135E-01
 curvature:  -6.29 expect dE=-0.205E+00 dE for cont linesearch -0.950E-03
 trial: gam= 0.16646 g(F)=  0.222E-01 g(S)=  0.105E-01 ort = 0.157E-01 (trialstep = 0.170E+00)
 search vector abs. value=  0.829E-01
 bond charge predicted
       N       E                     dE             d eps       ncg     rms          rms(c)
DAV:   1    -0.599640531322E+02   -0.78508E-02   -0.20282E-01   448   0.316E+00    0.277E-01
DAV:   2    -0.599618024069E+02    0.22507E-02   -0.82429E-03   496   0.511E-01    0.156E-01
DAV:   3    -0.599612898197E+02    0.51259E-03   -0.12490E-03   480   0.211E-01    0.786E-02
DAV:   4    -0.599611257494E+02    0.16407E-03   -0.45513E-04   512   0.132E-01    0.231E-02
DAV:   5    -0.599611198394E+02    0.59100E-05   -0.52485E-05   304   0.493E-02
  23 F= -.59961120E+02 E0= -.59928113E+02  d E =-.487956E-02
 trial-energy change:   -0.004880  1 .order   -0.004919   -0.006004   -0.003834
 step:   0.4716(harm=  0.4716)  dis= 0.00740  next Energy=   -59.964548 (dE=-0.831E-02)
 bond charge predicted
       N       E                     dE             d eps       ncg     rms          rms(c)
DAV:   1    -0.599734818951E+02   -0.12356E-01   -0.63402E-01   448   0.558E+00    0.490E-01
DAV:   2    -0.599665123672E+02    0.69695E-02   -0.25988E-02   496   0.897E-01    0.277E-01
DAV:   3    -0.599647909530E+02    0.17214E-02   -0.39047E-03   480   0.371E-01    0.140E-01
DAV:   4    -0.599642591262E+02    0.53183E-03   -0.14202E-03   512   0.238E-01    0.416E-02
DAV:   5    -0.599642531200E+02    0.60062E-05   -0.18007E-04   368   0.900E-02
  24 F= -.59964253E+02 E0= -.59931302E+02  d E =-.801284E-02
 curvature:  -0.55 expect dE=-0.233E-01 dE for cont linesearch -0.629E-06
 trial: gam= 1.39797 g(F)=  0.383E-01 g(S)=  0.370E-02 ort =-0.307E-03 (trialstep = 0.941E-01)
 search vector abs. value=  0.203E+00
 bond charge predicted
       N       E                     dE             d eps       ncg     rms          rms(c)
DAV:   1    -0.599697827404E+02   -0.55236E-02   -0.12666E-01   416   0.256E+00    0.239E-01
DAV:   2    -0.599681190033E+02    0.16637E-02   -0.55688E-03   480   0.414E-01    0.135E-01
DAV:   3    -0.599677366240E+02    0.38238E-03   -0.80120E-04   432   0.171E-01    0.682E-02
DAV:   4    -0.599676192061E+02    0.11742E-03   -0.34297E-04   416   0.116E-01    0.170E-02
DAV:   5    -0.599676517020E+02   -0.32496E-04   -0.43134E-05   288   0.482E-02
  25 F= -.59967652E+02 E0= -.59934854E+02  d E =-.339858E-02
 ZBRENT: can't locate minimum, use default step
 trial-energy change:   -0.003399  1 .order   -0.003437   -0.003912   -0.002962
 step:   0.3765(harm=  0.3878)  dis= 0.00628  next Energy=   -59.972310 (dE=-0.806E-02)
 bond charge predicted
       N       E                     dE             d eps       ncg     rms          rms(c)
DAV:   1    -0.599906689811E+02   -0.23050E-01   -0.11429E+00   384   0.769E+00    0.722E-01
DAV:   2    -0.599768285218E+02    0.13840E-01   -0.56997E-02   480   0.132E+00    0.411E-01
DAV:   3    -0.599731112457E+02    0.37173E-02   -0.73057E-03   432   0.516E-01    0.210E-01
DAV:   4    -0.599718669388E+02    0.12443E-02   -0.31636E-03   480   0.351E-01    0.524E-02
DAV:   5    -0.599718761810E+02   -0.92421E-05   -0.35879E-04   448   0.131E-01
  26 F= -.59971876E+02 E0= -.59939767E+02  d E =-.762306E-02
 curvature:  -0.95 expect dE=-0.215E-01 dE for cont linesearch -0.617E-05
 trial: gam= 0.38933 g(F)=  0.141E-01 g(S)=  0.855E-02 ort = 0.115E-02 (trialstep = 0.151E+00)
 search vector abs. value=  0.544E-01
 bond charge predicted
       N       E                     dE             d eps       ncg     rms          rms(c)
DAV:   1    -0.599765138772E+02   -0.46469E-02   -0.91916E-02   384   0.211E+00    0.184E-01
DAV:   2    -0.599753703382E+02    0.11435E-02   -0.42573E-03   480   0.351E-01    0.106E-01
DAV:   3    -0.599751213148E+02    0.24902E-03   -0.44075E-04   360   0.126E-01    0.563E-02
DAV:   4    -0.599750655366E+02    0.55778E-04   -0.30948E-04   368   0.105E-01
  27 F= -.59975066E+02 E0= -.59943187E+02  d E =-.318936E-02
 ZBRENT: can't locate minimum, use default step
 trial-energy change:   -0.003189  1 .order   -0.003115   -0.003484   -0.002746
 step:   0.6024(harm=  0.7106)  dis= 0.00732  next Energy=   -59.980095 (dE=-0.822E-02)
 bond charge predicted
       N       E                     dE             d eps       ncg     rms          rms(c)
DAV:   1    -0.599932887293E+02   -0.18167E-01   -0.83434E-01   384   0.636E+00    0.556E-01
DAV:   2    -0.599834719328E+02    0.98168E-02   -0.40539E-02   480   0.106E+00    0.322E-01
DAV:   3    -0.599810712826E+02    0.24007E-02   -0.41326E-03   448   0.371E-01    0.170E-01
DAV:   4    -0.599801838108E+02    0.88747E-03   -0.20959E-03   496   0.275E-01    0.430E-02
DAV:   5    -0.599802204463E+02   -0.36635E-04   -0.22183E-04   352   0.103E-01
  28 F= -.59980220E+02 E0= -.59949426E+02  d E =-.834427E-02
 curvature:  -0.80 expect dE=-0.192E-01 dE for cont linesearch -0.443E-03
 trial: gam= 0.85940 g(F)=  0.221E-01 g(S)=  0.185E-02 ort = 0.547E-02 (trialstep = 0.178E+00)
 search vector abs. value=  0.735E-01
 bond charge predicted
       N       E                     dE             d eps       ncg     rms          rms(c)
DAV:   1    -0.599865344529E+02   -0.63506E-02   -0.19622E-01   384   0.316E+00    0.237E-01
DAV:   2    -0.599848287844E+02    0.17057E-02   -0.81429E-03   496   0.504E-01    0.134E-01
DAV:   3    -0.599844267698E+02    0.40201E-03   -0.81271E-04   448   0.172E-01    0.706E-02
DAV:   4    -0.599843149524E+02    0.11182E-03   -0.40951E-04   480   0.126E-01    0.183E-02
DAV:   5    -0.599843561723E+02   -0.41220E-04   -0.43036E-05   288   0.458E-02
  29 F= -.59984356E+02 E0= -.59953723E+02  d E =-.413573E-02
 trial-energy change:   -0.004136  1 .order   -0.004068   -0.005105   -0.003031
 step:   0.4387(harm=  0.4387)  dis= 0.00689  next Energy=   -59.986502 (dE=-0.628E-02)
 bond charge predicted
       N       E                     dE             d eps       ncg     rms          rms(c)
DAV:   1    -0.599912029495E+02   -0.68880E-02   -0.41989E-01   384   0.463E+00    0.347E-01
DAV:   2    -0.599876224934E+02    0.35805E-02   -0.17437E-02   496   0.737E-01    0.197E-01
DAV:   3    -0.599867594855E+02    0.86301E-03   -0.17132E-03   496   0.251E-01    0.103E-01
DAV:   4    -0.599864628582E+02    0.29663E-03   -0.83338E-04   496   0.180E-01    0.257E-02
DAV:   5    -0.599864856045E+02   -0.22746E-04   -0.84390E-05   336   0.642E-02
  30 F= -.59986486E+02 E0= -.59956264E+02  d E =-.626516E-02
 curvature:  -0.56 expect dE=-0.136E-01 dE for cont linesearch -0.464E-07
 trial: gam= 1.32310 g(F)=  0.208E-01 g(S)=  0.328E-02 ort =-0.779E-04 (trialstep = 0.111E+00)
 search vector abs. value=  0.153E+00
 bond charge predicted
       N       E                     dE             d eps       ncg     rms          rms(c)
DAV:   1    -0.599903734884E+02   -0.39106E-02   -0.13923E-01   384   0.271E+00    0.203E-01
DAV:   2    -0.599891713829E+02    0.12021E-02   -0.50395E-03   480   0.405E-01    0.112E-01
DAV:   3    -0.599889031560E+02    0.26823E-03   -0.55482E-04   432   0.149E-01    0.568E-02
DAV:   4    -0.599888325737E+02    0.70582E-04   -0.21410E-04   304   0.943E-02
  31 F= -.59988833E+02 E0= -.59958972E+02  d E =-.234697E-02
 trial-energy change:   -0.002347  1 .order   -0.002328   -0.002664   -0.001992
 step:   0.4400(harm=  0.4400)  dis= 0.00837  next Energy=   -59.991766 (dE=-0.528E-02)
 bond charge predicted
       N       E                     dE             d eps       ncg     rms          rms(c)
DAV:   1    -0.600054970826E+02   -0.16594E-01   -0.12310E+00   384   0.804E+00    0.609E-01
DAV:   2    -0.599952860844E+02    0.10211E-01   -0.46252E-02   480   0.120E+00    0.337E-01
DAV:   3    -0.599928171966E+02    0.24689E-02   -0.47798E-03   432   0.439E-01    0.171E-01
DAV:   4    -0.599920063007E+02    0.81090E-03   -0.20137E-03   480   0.274E-01    0.454E-02
DAV:   5    -0.599920212993E+02   -0.14999E-04   -0.20098E-04   336   0.103E-01
  32 F= -.59992021E+02 E0= -.59963261E+02  d E =-.553569E-02
 curvature:  -1.40 expect dE=-0.404E-01 dE for cont linesearch -0.708E-04
 trial: gam= 0.72247 g(F)=  0.229E-01 g(S)=  0.594E-02 ort = 0.278E-02 (trialstep = 0.177E+00)
 search vector abs. value=  0.113E+00
 bond charge predicted
       N       E                     dE             d eps       ncg     rms          rms(c)
DAV:   1    -0.599987200850E+02   -0.67138E-02   -0.27518E-01   384   0.373E+00    0.262E-01
DAV:   2    -0.599971036740E+02    0.16164E-02   -0.84111E-03   480   0.557E-01    0.151E-01
DAV:   3    -0.599965882832E+02    0.51539E-03   -0.11156E-03   512   0.207E-01    0.690E-02
DAV:   4    -0.599965038684E+02    0.84415E-04   -0.26167E-04   320   0.103E-01
  33 F= -.59996504E+02 E0= -.59968386E+02  d E =-.448257E-02
 trial-energy change:   -0.004483  1 .order   -0.004471   -0.005458   -0.003485
 step:   0.4891(harm=  0.4891)  dis= 0.00798  next Energy=   -59.999571 (dE=-0.755E-02)
 bond charge predicted
       N       E                     dE             d eps       ncg     rms          rms(c)
DAV:   1    -0.600065574414E+02   -0.99692E-02   -0.86186E-01   384   0.660E+00    0.467E-01
DAV:   2    -0.600015478876E+02    0.50096E-02   -0.26805E-02   480   0.986E-01    0.269E-01
DAV:   3    -0.599999047774E+02    0.16431E-02   -0.33559E-03   464   0.361E-01    0.124E-01
DAV:   4    -0.599995478622E+02    0.35692E-03   -0.86885E-04   448   0.182E-01    0.366E-02
DAV:   5    -0.599995949647E+02   -0.47103E-04   -0.11061E-04   336   0.707E-02
  34 F= -.59999595E+02 E0= -.59972580E+02  d E =-.757367E-02
 curvature:  -0.89 expect dE=-0.297E-01 dE for cont linesearch -0.759E-05
 trial: gam= 1.26502 g(F)=  0.313E-01 g(S)=  0.211E-02 ort = 0.979E-03 (trialstep = 0.125E+00)
 search vector abs. value=  0.216E+00
 bond charge predicted
       N       E                     dE             d eps       ncg     rms          rms(c)
DAV:   1    -0.600052925321E+02   -0.57447E-02   -0.26164E-01   384   0.354E+00    0.251E-01
DAV:   2    -0.600037286236E+02    0.15639E-02   -0.72671E-03   496   0.532E-01    0.144E-01
DAV:   3    -0.600032480170E+02    0.48061E-03   -0.10720E-03   464   0.195E-01    0.644E-02
DAV:   4    -0.600031813798E+02    0.66637E-04   -0.21789E-04   368   0.938E-02
  35 F= -.60003181E+02 E0= -.59976603E+02  d E =-.358642E-02
 trial-energy change:   -0.003586  1 .order   -0.003609   -0.004315   -0.002903
 step:   0.3811(harm=  0.3811)  dis= 0.00941  next Energy=   -60.006188 (dE=-0.659E-02)
 bond charge predicted
       N       E                     dE             d eps       ncg     rms          rms(c)
DAV:   1    -0.600149151430E+02   -0.11667E-01   -0.11081E+00   384   0.728E+00    0.519E-01
DAV:   2    -0.600084870695E+02    0.64281E-02   -0.31016E-02   496   0.108E+00    0.297E-01
DAV:   3    -0.600064099096E+02    0.20772E-02   -0.43780E-03   480   0.397E-01    0.135E-01
DAV:   4    -0.600060130897E+02    0.39682E-03   -0.10283E-03   496   0.193E-01    0.433E-02
DAV:   5    -0.600060547816E+02   -0.41692E-04   -0.16119E-04   336   0.811E-02
  36 F= -.60006055E+02 E0= -.59980195E+02  d E =-.645982E-02
 curvature:  -1.19 expect dE=-0.337E-01 dE for cont linesearch -0.981E-05
 trial: gam= 0.82395 g(F)=  0.275E-01 g(S)=  0.906E-03 ort = 0.133E-02 (trialstep = 0.176E+00)
 search vector abs. value=  0.177E+00
 bond charge predicted
       N       E                     dE             d eps       ncg     rms          rms(c)
DAV:   1    -0.600131628928E+02   -0.71498E-02   -0.42452E-01   384   0.449E+00    0.289E-01
DAV:   2    -0.600111182911E+02    0.20446E-02   -0.10947E-02   528   0.628E-01    0.162E-01
DAV:   3    -0.600105292753E+02    0.58902E-03   -0.14005E-03   432   0.225E-01    0.747E-02
DAV:   4    -0.600104350078E+02    0.94268E-04   -0.36726E-04   480   0.118E-01
  37 F= -.60010435E+02 E0= -.59984739E+02  d E =-.438023E-02
 trial-energy change:   -0.004380  1 .order   -0.004387   -0.005185   -0.003588
 step:   0.5713(harm=  0.5713)  dis= 0.01431  next Energy=   -60.014472 (dE=-0.842E-02)
 bond charge predicted
       N       E                     dE             d eps       ncg     rms          rms(c)
DAV:   1    -0.600289576340E+02   -0.18428E-01   -0.21528E+00   384   0.101E+01    0.662E-01
DAV:   2    -0.600187363144E+02    0.10221E-01   -0.57101E-02   512   0.142E+00    0.371E-01
DAV:   3    -0.600156849643E+02    0.30514E-02   -0.70275E-03   448   0.508E-01    0.176E-01
DAV:   4    -0.600149642012E+02    0.72076E-03   -0.19780E-03   496   0.272E-01    0.541E-02
DAV:   5    -0.600149948574E+02   -0.30656E-04   -0.28590E-04   344   0.112E-01
  38 F= -.60014995E+02 E0= -.59989536E+02  d E =-.894008E-02
 curvature:  -1.72 expect dE=-0.628E-01 dE for cont linesearch -0.151E-03
 trial: gam= 1.18401 g(F)=  0.346E-01 g(S)=  0.199E-02 ort = 0.394E-02 (trialstep = 0.154E+00)
 search vector abs. value=  0.294E+00
 bond charge predicted
       N       E                     dE             d eps       ncg     rms          rms(c)
DAV:   1    -0.600232365191E+02   -0.82723E-02   -0.55680E-01   384   0.505E+00    0.302E-01
DAV:   2    -0.600212949448E+02    0.19416E-02   -0.13087E-02   528   0.688E-01    0.169E-01
DAV:   3    -0.600206540191E+02    0.64093E-03   -0.14980E-03   480   0.233E-01    0.748E-02
DAV:   4    -0.600205836254E+02    0.70394E-04   -0.38664E-04   512   0.121E-01
  39 F= -.60020584E+02 E0= -.59995535E+02  d E =-.558877E-02
 trial-energy change:   -0.005589  1 .order   -0.005517   -0.006331   -0.004704
 step:   0.5973(harm=  0.5973)  dis= 0.02006  next Energy=   -60.027309 (dE=-0.123E-01)
 bond charge predicted
       N       E                     dE             d eps       ncg     rms          rms(c)
DAV:   1    -0.600512111596E+02   -0.30557E-01   -0.46732E+00   384   0.146E+01    0.898E-01
DAV:   2    -0.600348925208E+02    0.16319E-01   -0.11549E-01   528   0.201E+00    0.498E-01
DAV:   3    -0.600294178946E+02    0.54746E-02   -0.12387E-02   488   0.681E-01    0.228E-01
DAV:   4    -0.600282723648E+02    0.11455E-02   -0.33452E-03   464   0.358E-01    0.679E-02
DAV:   5    -0.600283709788E+02   -0.98614E-04   -0.45837E-04   496   0.140E-01
  40 F= -.60028371E+02 E0= -.60004479E+02  d E =-.133761E-01
 curvature:  -2.13 expect dE=-0.167E+00 dE for cont linesearch -0.311E-03
 trial: gam= 2.24833 g(F)=  0.769E-01 g(S)=  0.163E-02 ort = 0.655E-02 (trialstep = 0.447E-01)
 search vector abs. value=  0.160E+01
 bond charge predicted
       N       E                     dE             d eps       ncg     rms          rms(c)
DAV:   1    -0.600336561963E+02   -0.53838E-02   -0.25745E-01   384   0.339E+00    0.205E-01
DAV:   2    -0.600326717492E+02    0.98445E-03   -0.57727E-03   512   0.456E-01    0.112E-01
DAV:   3    -0.600324143748E+02    0.25737E-03   -0.72689E-04   456   0.162E-01    0.479E-02
DAV:   4    -0.600324417583E+02   -0.27383E-04   -0.14305E-04   344   0.766E-02
  41 F= -.60032442E+02 E0= -.60008749E+02  d E =-.407078E-02
 ZBRENT: can't locate minimum, use default step
 trial-energy change:   -0.004071  1 .order   -0.003937   -0.004166   -0.003709
 step:   0.1788(harm=  0.4071)  dis= 0.01441  next Energy=   -60.047344 (dE=-0.190E-01)
 bond charge predicted
       N       E                     dE             d eps       ncg     rms          rms(c)
DAV:   1    -0.600538252105E+02   -0.21411E-01   -0.23304E+00   384   0.102E+01    0.625E-01
DAV:   2    -0.600452153868E+02    0.86098E-02   -0.53469E-02   528   0.138E+00    0.340E-01
DAV:   3    -0.600425922266E+02    0.26232E-02   -0.63376E-03   440   0.484E-01    0.148E-01
DAV:   4    -0.600421835389E+02    0.40869E-03   -0.14025E-03   488   0.229E-01    0.480E-02
DAV:   5    -0.600422673161E+02   -0.83777E-04   -0.21370E-04   304   0.939E-02
  42 F= -.60042267E+02 E0= -.60019324E+02  d E =-.138963E-01
 curvature:  -2.10 expect dE=-0.991E-01 dE for cont linesearch -0.577E-02
 ZBRENT: increasing intervall
 opt :   0.4469  next Energy=   -60.055507 (dE=-0.271E-01)
 bond charge predicted
       N       E                     dE             d eps       ncg     rms          rms(c)
DAV:   1    -0.601020694804E+02   -0.59886E-01   -0.93797E+00   384   0.203E+01    0.128E+00
DAV:   2    -0.600658537335E+02    0.36216E-01   -0.22929E-01   528   0.282E+00    0.688E-01
DAV:   3    -0.600553848196E+02    0.10469E-01   -0.25454E-02   432   0.989E-01    0.310E-01
DAV:   4    -0.600534615176E+02    0.19233E-02   -0.57206E-03   480   0.460E-01    0.994E-02
DAV:   5    -0.600536012455E+02   -0.13973E-03   -0.88786E-04   448   0.182E-01    0.328E-02
DAV:   6    -0.600537615348E+02   -0.16029E-03   -0.12174E-04   336   0.606E-02    0.140E-02
DAV:   7    -0.600539357828E+02   -0.17425E-03   -0.51948E-05   304   0.374E-02    0.773E-03
DAV:   8    -0.600541201989E+02   -0.18442E-03   -0.43177E-05   352   0.274E-02    0.486E-03
DAV:   9    -0.600542910873E+02   -0.17089E-03   -0.64582E-05   336   0.268E-02    0.303E-03
DAV:  10    -0.600543394983E+02   -0.48411E-04   -0.14950E-05   344   0.147E-02
  43 F= -.60054339E+02 E0= -.60032996E+02  d E =-.259685E-01
 curvature:  -4.82 expect dE=-0.343E+00 dE for cont linesearch -0.168E-02
 ZBRENT: increasing intervall
 opt :   0.9831  next Energy=   -60.044113 (dE=-0.157E-01)
 bond charge predicted
       N       E                     dE             d eps       ncg     rms          rms(c)
DAV:   1    -0.602470546891E+02   -0.19276E+00   -0.38045E+01   384   0.409E+01    0.270E+00
DAV:   2    -0.600916608711E+02    0.15539E+00   -0.10770E+00   464   0.608E+00    0.140E+00
DAV:   3    -0.600507640332E+02    0.40897E-01   -0.10552E-01   496   0.209E+00    0.670E-01
DAV:   4    -0.600418859174E+02    0.88781E-02   -0.22895E-02   472   0.916E-01    0.212E-01
DAV:   5    -0.600419139622E+02   -0.28045E-04   -0.29687E-03   432   0.337E-01    0.722E-02
DAV:   6    -0.600422892839E+02   -0.37532E-03   -0.39613E-04   336   0.111E-01    0.270E-02
DAV:   7    -0.600426489860E+02   -0.35970E-03   -0.15031E-04   288   0.685E-02    0.142E-02
DAV:   8    -0.600430185523E+02   -0.36957E-03   -0.12414E-04   336   0.514E-02    0.824E-03
DAV:   9    -0.600433235506E+02   -0.30500E-03   -0.14430E-04   368   0.470E-02    0.543E-03
DAV:  10    -0.600434070249E+02   -0.83474E-04   -0.30888E-05   368   0.242E-02
  44 F= -.60043407E+02 E0= -.60025867E+02  d E =-.150360E-01
 curvature:  29.40 expect dE= 0.107E+02 dE for cont linesearch  0.762E-01
 ZBRENT: bracketing found
 ZBRENT: interpolating
 opt :   0.5907  next Energy=   -60.056033 (dE=-0.277E-01)
 bond charge predicted
       N       E                     dE             d eps       ncg     rms          rms(c)
DAV:   1    -0.601516724486E+02   -0.10835E+00   -0.20711E+01   384   0.311E+01    0.181E+00
DAV:   2    -0.600842770231E+02    0.67395E-01   -0.45963E-01   496   0.431E+00    0.987E-01
DAV:   3    -0.600571900346E+02    0.27087E-01   -0.91228E-02   456   0.167E+00    0.323E-01
DAV:   4    -0.600554578875E+02    0.17321E-02   -0.85303E-03   496   0.590E-01    0.142E-01
DAV:   5    -0.600551125241E+02    0.34536E-03   -0.10817E-03   480   0.203E-01    0.601E-02
DAV:   6    -0.600551299975E+02   -0.17473E-04   -0.32283E-04   392   0.105E-01
  45 F= -.60055130E+02 E0= -.60035021E+02  d E =-.267590E-01
 curvature:  -0.65 expect dE=-0.775E-01 dE for cont linesearch -0.166E-04
 trial: gam= 1.52742 g(F)=  0.110E+00 g(S)=  0.827E-02 ort =-0.637E-02 (trialstep = 0.643E-01)
 search vector abs. value=  0.382E+01
 bond charge predicted
       N       E                     dE             d eps       ncg     rms          rms(c)
DAV:   1    -0.600686607560E+02   -0.13548E-01   -0.13066E+00   384   0.756E+00    0.468E-01
DAV:   2    -0.600640668967E+02    0.45939E-02   -0.29869E-02   496   0.102E+00    0.247E-01
DAV:   3    -0.600629262924E+02    0.11406E-02   -0.33194E-03   432   0.358E-01    0.101E-01
DAV:   4    -0.600628708088E+02    0.55484E-04   -0.67159E-04   488   0.160E-01
  46 F= -.60062871E+02 E0= -.60042973E+02  d E =-.774081E-02
 ZBRENT: can't locate minimum, use default step
 trial-energy change:   -0.007741  1 .order   -0.006828   -0.006987   -0.006669
 step:   0.2570(harm=  1.4128)  dis= 0.03317  next Energy=   -60.131948 (dE=-0.768E-01)
 bond charge predicted
       N       E                     dE             d eps       ncg     rms          rms(c)
DAV:   1    -0.601412597013E+02   -0.78333E-01   -0.11787E+01   384   0.226E+01    0.144E+00
DAV:   2    -0.600947892583E+02    0.46470E-01   -0.29643E-01   512   0.315E+00    0.752E-01
DAV:   3    -0.600828330777E+02    0.11956E-01   -0.30235E-02   472   0.110E+00    0.338E-01
DAV:   4    -0.600806803354E+02    0.21527E-02   -0.69162E-03   424   0.508E-01    0.110E-01
DAV:   5    -0.600807627947E+02   -0.82459E-04   -0.93337E-04   496   0.192E-01
  47 F= -.60080763E+02 E0= -.60062078E+02  d E =-.256328E-01
 curvature:  -6.59 expect dE=-0.850E+00 dE for cont linesearch -0.130E-01
 ZBRENT: increasing intervall
 opt :   0.6425  next Energy=   -60.107795 (dE=-0.527E-01)
 bond charge predicted
       N       E                     dE             d eps       ncg     rms          rms(c)
DAV:   1    -0.603600752022E+02   -0.27939E+00   -0.47755E+01   384   0.455E+01    0.306E+00
DAV:   2    -0.601561782283E+02    0.20390E+00   -0.14720E+00   464   0.699E+00    0.154E+00
DAV:   3    -0.601084705916E+02    0.47708E-01   -0.12946E-01   520   0.234E+00    0.756E-01
DAV:   4    -0.600978387085E+02    0.10632E-01   -0.29688E-02   480   0.105E+00    0.245E-01
DAV:   5    -0.600979763435E+02   -0.13763E-03   -0.36899E-03   432   0.377E-01    0.879E-02
DAV:   6    -0.600985341270E+02   -0.55778E-03   -0.55126E-04   408   0.135E-01    0.319E-02
DAV:   7    -0.600990336705E+02   -0.49954E-03   -0.21105E-04   288   0.803E-02    0.167E-02
DAV:   8    -0.600994961034E+02   -0.46243E-03   -0.17511E-04   344   0.610E-02    0.101E-02
DAV:   9    -0.600998685319E+02   -0.37243E-03   -0.19618E-04   384   0.561E-02    0.711E-03
DAV:  10    -0.600999658450E+02   -0.97313E-04   -0.35670E-05   368   0.277E-02
  48 F= -.60099966E+02 E0= -.60083740E+02  d E =-.448358E-01
 curvature: -13.66 expect dE=-0.471E+01 dE for cont linesearch -0.838E-03
 trial: gam= 2.27301 g(F)=  0.315E+00 g(S)=  0.292E-01 ort = 0.153E-01 (trialstep = 0.341E-01)
 search vector abs. value=  0.202E+02
 bond charge predicted
       N       E                     dE             d eps       ncg     rms          rms(c)
DAV:   1    -0.601221596909E+02   -0.22291E-01   -0.19567E+00   384   0.923E+00    0.577E-01
DAV:   2    -0.601146365989E+02    0.75231E-02   -0.45030E-02   496   0.125E+00    0.296E-01
DAV:   3    -0.601125961568E+02    0.20404E-02   -0.56717E-03   496   0.459E-01    0.113E-01
DAV:   4    -0.601124077480E+02    0.18841E-03   -0.83212E-04   472   0.180E-01    0.431E-02
DAV:   5    -0.601124283324E+02   -0.20584E-04   -0.96479E-05   336   0.632E-02
  49 F= -.60112428E+02 E0= -.60096839E+02  d E =-.124625E-01
 ZBRENT: can't locate minimum, use default step
 trial-energy change:   -0.012462  1 .order   -0.012611   -0.012937   -0.012284
 step:   0.1364(harm=  0.6762)  dis= 0.04067  next Energy=   -60.228217 (dE=-0.128E+00)
 bond charge predicted
       N       E                     dE             d eps       ncg     rms          rms(c)
DAV:   1    -0.602377764914E+02   -0.12537E+00   -0.17692E+01   384   0.276E+01    0.180E+00
DAV:   2    -0.601643148641E+02    0.73462E-01   -0.45464E-01   480   0.393E+00    0.905E-01
DAV:   3    -0.601470122400E+02    0.17303E-01   -0.48664E-02   480   0.140E+00    0.390E-01
DAV:   4    -0.601446567384E+02    0.23555E-02   -0.87438E-03   464   0.574E-01    0.140E-01
DAV:   5    -0.601448036702E+02   -0.14693E-03   -0.11070E-03   408   0.204E-01    0.486E-02
DAV:   6    -0.601450588673E+02   -0.25520E-03   -0.15764E-04   320   0.754E-02    0.182E-02
DAV:   7    -0.601452987378E+02   -0.23987E-03   -0.83383E-05   312   0.476E-02    0.962E-03
DAV:   8    -0.601455265707E+02   -0.22783E-03   -0.60753E-05   368   0.356E-02    0.571E-03
DAV:   9    -0.601457316924E+02   -0.20512E-03   -0.88686E-05   368   0.349E-02    0.397E-03
DAV:  10    -0.601457871132E+02   -0.55421E-04   -0.19843E-05   368   0.200E-02
  50 F= -.60145787E+02 E0= -.60132314E+02  d E =-.458213E-01
 curvature:  -5.27 expect dE=-0.118E+01 dE for cont linesearch -0.222E-01
 ZBRENT: increasing intervall
 opt :   0.3411  next Energy=   -60.191277 (dE=-0.913E-01)
 bond charge predicted
       N       E                     dE             d eps       ncg     rms          rms(c)
DAV:   1    -0.605821860963E+02   -0.43645E+00   -0.71804E+01   384   0.559E+01    0.387E+00
DAV:   2    -0.602697943715E+02    0.31239E+00   -0.23492E+00   496   0.901E+00    0.188E+00
DAV:   3    -0.602023292481E+02    0.67465E-01   -0.20016E-01   504   0.294E+00    0.917E-01
DAV:   4    -0.601897212912E+02    0.12608E-01   -0.41163E-02   496   0.124E+00    0.327E-01
DAV:   5    -0.601896841500E+02    0.37141E-04   -0.44696E-03   512   0.417E-01    0.115E-01
DAV:   6    -0.601903033113E+02   -0.61916E-03   -0.62169E-04   432   0.152E-01    0.397E-02
DAV:   7    -0.601908441073E+02   -0.54080E-03   -0.23794E-04   336   0.744E-02    0.192E-02
DAV:   8    -0.601913349636E+02   -0.49086E-03   -0.18668E-04   400   0.583E-02    0.122E-02
DAV:   9    -0.601917493952E+02   -0.41443E-03   -0.19569E-04   416   0.520E-02    0.777E-03
DAV:  10    -0.601918990216E+02   -0.14963E-03   -0.53587E-05   368   0.279E-02    0.533E-03
DAV:  11    -0.601919912743E+02   -0.92253E-04   -0.39315E-05   360   0.219E-02
  51 F= -.60191991E+02 E0= -.60182702E+02  d E =-.920254E-01
 curvature: -10.81 expect dE=-0.218E+01 dE for cont linesearch -0.116E-01
 ZBRENT: increasing intervall
 opt :   0.7503  next Energy=   -60.193231 (dE=-0.933E-01)
 bond charge predicted
       N       E                     dE             d eps       ncg     rms          rms(c)
DAV:   1    -0.617894626878E+02   -0.15976E+01   -0.30137E+02   384   0.120E+02    0.897E+00
DAV:   2    -0.605015578002E+02    0.12879E+01   -0.15362E+01   496   0.226E+01    0.401E+00
DAV:   3    -0.602508344021E+02    0.25072E+00   -0.90924E-01   480   0.639E+00    0.233E+00
DAV:   4    -0.601924087726E+02    0.58426E-01   -0.19165E-01   472   0.276E+00    0.840E-01
DAV:   5    -0.601908804008E+02    0.15284E-02   -0.20939E-02   496   0.918E-01    0.264E-01
DAV:   6    -0.601930091701E+02   -0.21288E-02   -0.33423E-03   504   0.350E-01    0.859E-02
DAV:   7    -0.601945490843E+02   -0.15399E-02   -0.11639E-03   448   0.169E-01    0.408E-02
DAV:   8    -0.601955286465E+02   -0.97956E-03   -0.40755E-04   424   0.977E-02    0.248E-02
DAV:   9    -0.601964985763E+02   -0.96993E-03   -0.60712E-04   368   0.989E-02    0.160E-02
DAV:  10    -0.601969049192E+02   -0.40634E-03   -0.18988E-04   392   0.554E-02    0.120E-02
DAV:  11    -0.601971861883E+02   -0.28127E-03   -0.14732E-04   360   0.466E-02    0.744E-03
DAV:  12    -0.601972856731E+02   -0.99485E-04   -0.36152E-05   368   0.307E-02
  52 F= -.60197286E+02 E0= -.60194802E+02  d E =-.973198E-01
 curvature:  -1.15 expect dE=-0.758E+00 dE for cont linesearch -0.227E-02
 ZBRENT: bracketing found
 ZBRENT: interpolating
 opt :   0.5150  next Energy=   -60.204785 (dE=-0.105E+00)
 bond charge predicted
       N       E                     dE             d eps       ncg     rms          rms(c)
DAV:   1    -0.606259001424E+02   -0.42871E+00   -0.10269E+02   384   0.722E+01    0.400E+00
DAV:   2    -0.603715227525E+02    0.25438E+00   -0.26518E+00   424   0.111E+01    0.216E+00
DAV:   3    -0.602176845376E+02    0.15384E+00   -0.47893E-01   472   0.379E+00    0.622E-01
DAV:   4    -0.602130845208E+02    0.46000E-02   -0.35988E-02   488   0.121E+00    0.319E-01
DAV:   5    -0.602113047139E+02    0.17798E-02   -0.76559E-03   496   0.521E-01    0.989E-02
DAV:   6    -0.602110164986E+02    0.28822E-03   -0.13510E-03   520   0.220E-01    0.448E-02
DAV:   7    -0.602110971666E+02   -0.80668E-04   -0.39000E-04   392   0.920E-02
  53 F= -.60211097E+02 E0= -.60205853E+02  d E =-.111131E+00
 curvature:  -6.50 expect dE=-0.205E+01 dE for cont linesearch -0.700E-04
 trial: gam= 0.71992 g(F)=  0.273E+00 g(S)=  0.413E-01 ort = 0.147E-01 (trialstep = 0.130E+00)
 search vector abs. value=  0.108E+02
 bond charge predicted
       N       E                     dE             d eps       ncg     rms          rms(c)
DAV:   1    -0.603287764576E+02   -0.11776E+00   -0.15863E+01   384   0.262E+01    0.172E+00
DAV:   2    -0.602679898069E+02    0.60787E-01   -0.38582E-01   480   0.371E+00    0.859E-01
DAV:   3    -0.602508214677E+02    0.17168E-01   -0.59533E-02   464   0.149E+00    0.319E-01
DAV:   4    -0.602500236276E+02    0.79784E-03   -0.64034E-03   512   0.487E-01    0.143E-01
DAV:   5    -0.602500344132E+02   -0.10786E-04   -0.80570E-04   440   0.169E-01
  54 F= -.60250034E+02 E0= -.60246228E+02  d E =-.389372E-01
 ZBRENT: can't locate minimum, use default step
 trial-energy change:   -0.038937  1 .order   -0.037660   -0.042385   -0.032936
 step:   0.5211(harm=  0.5844)  dis= 0.11309  next Energy=   -60.306161 (dE=-0.951E-01)
 bond charge predicted
       N       E                     dE             d eps       ncg     rms          rms(c)
DAV:   1    -0.610324562574E+02   -0.78243E+00   -0.14530E+02   384   0.805E+01    0.579E+00
DAV:   2    -0.604428294607E+02    0.58963E+00   -0.51046E+00   456   0.143E+01    0.269E+00
DAV:   3    -0.603109237825E+02    0.13191E+00   -0.44073E-01   456   0.452E+00    0.139E+00
DAV:   4    -0.602931334230E+02    0.17790E-01   -0.76568E-02   472   0.170E+00    0.529E-01
DAV:   5    -0.602939465104E+02   -0.81309E-03   -0.71165E-03   488   0.538E-01    0.163E-01
DAV:   6    -0.602952784452E+02   -0.13319E-02   -0.13271E-03   448   0.214E-01    0.534E-02
DAV:   7    -0.602961470610E+02   -0.86862E-03   -0.47147E-04   376   0.976E-02    0.279E-02
DAV:   8    -0.602968912247E+02   -0.74416E-03   -0.21310E-04   376   0.663E-02    0.160E-02
DAV:   9    -0.602975727954E+02   -0.68157E-03   -0.34029E-04   368   0.681E-02    0.919E-03
DAV:  10    -0.602977756766E+02   -0.20288E-03   -0.82314E-05   360   0.331E-02    0.708E-03
DAV:  11    -0.602978964551E+02   -0.12078E-03   -0.63240E-05   336   0.248E-02    0.326E-03
DAV:  12    -0.602979245344E+02   -0.28079E-04   -0.11377E-05   360   0.135E-02
  55 F= -.60297925E+02 E0= -.60297341E+02  d E =-.868274E-01
 curvature:  -9.50 expect dE=-0.396E+01 dE for cont linesearch -0.155E-02
 trial: gam= 1.23016 g(F)=  0.324E+00 g(S)=  0.926E-01 ort =-0.420E-01 (trialstep = 0.135E+00)
 search vector abs. value=  0.166E+02
 bond charge predicted
       N       E                     dE             d eps       ncg     rms          rms(c)
DAV:   1    -0.604764779304E+02   -0.17858E+00   -0.26319E+01   384   0.338E+01    0.227E+00
DAV:   2    -0.603743144440E+02    0.10216E+00   -0.65176E-01   440   0.485E+00    0.113E+00
DAV:   3    -0.603417075058E+02    0.32607E-01   -0.10988E-01   448   0.209E+00    0.398E-01
DAV:   4    -0.603406354853E+02    0.10720E-02   -0.11480E-02   472   0.647E-01    0.190E-01
DAV:   5    -0.603410459322E+02   -0.41045E-03   -0.17826E-03   464   0.254E-01    0.610E-02
DAV:   6    -0.603413136137E+02   -0.26768E-03   -0.34016E-04   360   0.111E-01    0.254E-02
DAV:   7    -0.603416933022E+02   -0.37969E-03   -0.23339E-04   304   0.776E-02    0.135E-02
DAV:   8    -0.603418853823E+02   -0.19208E-03   -0.46108E-05   328   0.453E-02    0.804E-03
DAV:   9    -0.603422212720E+02   -0.33589E-03   -0.18185E-04   352   0.495E-02    0.690E-03
DAV:  10    -0.603422725570E+02   -0.51285E-04   -0.22306E-05   368   0.267E-02
  56 F= -.60342273E+02 E0= -.60342021E+02  d E =-.443480E-01
 trial-energy change:   -0.044348  1 .order   -0.043343   -0.049357   -0.037329
 step:   0.3252(harm=  0.5546)  dis= 0.08986  next Energy=   -60.371323 (dE=-0.734E-01)
 bond charge predicted
       N       E                     dE             d eps       ncg     rms          rms(c)
DAV:   1    -0.606632997646E+02   -0.32108E+00   -0.52775E+01   384   0.478E+01    0.334E+00
DAV:   2    -0.604505963534E+02    0.21270E+00   -0.13930E+00   416   0.711E+00    0.161E+00
DAV:   3    -0.603875487220E+02    0.63048E-01   -0.21482E-01   464   0.296E+00    0.619E-01
DAV:   4    -0.603846420462E+02    0.29067E-02   -0.22375E-02   488   0.898E-01    0.282E-01
DAV:   5    -0.603850873819E+02   -0.44534E-03   -0.29334E-03   472   0.321E-01    0.846E-02
DAV:   6    -0.603855362857E+02   -0.44890E-03   -0.67127E-04   440   0.146E-01    0.336E-02
DAV:   7    -0.603860821815E+02   -0.54590E-03   -0.34021E-04   320   0.844E-02    0.191E-02
DAV:   8    -0.603863603339E+02   -0.27815E-03   -0.63410E-05   344   0.443E-02    0.119E-02
DAV:   9    -0.603868471357E+02   -0.48680E-03   -0.33796E-04   352   0.648E-02    0.914E-03
DAV:  10    -0.603869101568E+02   -0.63021E-04   -0.38798E-05   352   0.340E-02
  57 F= -.60386910E+02 E0= -.60386819E+02  d E =-.889856E-01
 curvature:  -8.85 expect dE=-0.210E+01 dE for cont linesearch -0.139E-01
 ZBRENT: increasing intervall
 opt :   0.7054  next Energy=   -60.404748 (dE=-0.107E+00)
 bond charge predicted
       N       E                     dE             d eps       ncg     rms          rms(c)
DAV:   1    -0.615452816629E+02   -0.11584E+01   -0.21835E+02   384   0.999E+01    0.765E+00
DAV:   2    -0.606538292479E+02    0.89145E+00   -0.80619E+00   448   0.179E+01    0.340E+00
DAV:   3    -0.604500158767E+02    0.20381E+00   -0.71168E-01   504   0.573E+00    0.179E+00
DAV:   4    -0.604213362711E+02    0.28680E-01   -0.10244E-01   520   0.201E+00    0.651E-01
DAV:   5    -0.604210067853E+02    0.32949E-03   -0.10341E-02   480   0.640E-01    0.185E-01
DAV:   6    -0.604221820578E+02   -0.11753E-02   -0.21678E-03   472   0.270E-01    0.638E-02
DAV:   7    -0.604230356107E+02   -0.85355E-03   -0.77309E-04   384   0.130E-01    0.351E-02
DAV:   8    -0.604236241763E+02   -0.58857E-03   -0.24704E-04   384   0.762E-02    0.229E-02
DAV:   9    -0.604241972738E+02   -0.57310E-03   -0.55139E-04   352   0.862E-02    0.140E-02
DAV:  10    -0.604242841091E+02   -0.86835E-04   -0.11466E-04   384   0.422E-02
  58 F= -.60424284E+02 E0= -.60424266E+02  d E =-.126360E+00
 curvature: -11.36 expect dE=-0.450E+01 dE for cont linesearch -0.340E-03
 trial: gam= 0.76482 g(F)=  0.308E+00 g(S)=  0.883E-01 ort =-0.223E-01 (trialstep = 0.249E+00)
 search vector abs. value=  0.101E+02
 bond charge predicted
       N       E                     dE             d eps       ncg     rms          rms(c)
DAV:   1    -0.607980403038E+02   -0.37384E+00   -0.56376E+01   384   0.495E+01    0.340E+00
DAV:   2    -0.605759099668E+02    0.22213E+00   -0.14987E+00   416   0.762E+00    0.167E+00
DAV:   3    -0.605004842726E+02    0.75426E-01   -0.26006E-01   496   0.319E+00    0.656E-01
DAV:   4    -0.604969319633E+02    0.35523E-02   -0.24134E-02   512   0.958E-01    0.305E-01
DAV:   5    -0.604970561776E+02   -0.12421E-03   -0.34798E-03   504   0.354E-01    0.871E-02
DAV:   6    -0.604974737495E+02   -0.41757E-03   -0.89810E-04   488   0.173E-01    0.369E-02
DAV:   7    -0.604979754640E+02   -0.50171E-03   -0.47303E-04   416   0.101E-01    0.247E-02
DAV:   8    -0.604982323190E+02   -0.25685E-03   -0.73427E-05   376   0.526E-02    0.162E-02
DAV:   9    -0.604986949492E+02   -0.46263E-03   -0.42161E-04   384   0.742E-02    0.121E-02
DAV:  10    -0.604987579603E+02   -0.63011E-04   -0.44492E-05   376   0.389E-02
  59 F= -.60498758E+02 E0= -.60498747E+02  d E =-.744739E-01
 trial-energy change:   -0.074474  1 .order   -0.073516   -0.094435   -0.052596
 step:   0.4953(harm=  0.5625)  dis= 0.11340  next Energy=   -60.525649 (dE=-0.101E+00)
 bond charge predicted
       N       E                     dE             d eps       ncg     rms          rms(c)
DAV:   1    -0.608394512765E+02   -0.34076E+00   -0.55847E+01   384   0.493E+01    0.342E+00
DAV:   2    -0.606130164775E+02    0.22643E+00   -0.14701E+00   400   0.759E+00    0.169E+00
DAV:   3    -0.605349849939E+02    0.78031E-01   -0.26820E-01   488   0.324E+00    0.666E-01
DAV:   4    -0.605312429142E+02    0.37421E-02   -0.23829E-02   504   0.949E-01    0.308E-01
DAV:   5    -0.605312085112E+02    0.34403E-04   -0.34746E-03   512   0.350E-01    0.867E-02
DAV:   6    -0.605316587555E+02   -0.45024E-03   -0.87544E-04   488   0.170E-01    0.381E-02
DAV:   7    -0.605321518040E+02   -0.49305E-03   -0.47037E-04   392   0.103E-01    0.255E-02
DAV:   8    -0.605324475837E+02   -0.29578E-03   -0.10547E-04   352   0.567E-02    0.181E-02
DAV:   9    -0.605328835400E+02   -0.43596E-03   -0.42315E-04   368   0.752E-02    0.129E-02
DAV:  10    -0.605329464034E+02   -0.62863E-04   -0.42291E-05   384   0.390E-02
  60 F= -.60532946E+02 E0= -.60532937E+02  d E =-.108662E+00
 curvature:  -7.14 expect dE=-0.169E+01 dE for cont linesearch -0.158E-02
 trial: gam= 0.52265 g(F)=  0.183E+00 g(S)=  0.538E-01 ort = 0.472E-01 (trialstep = 0.298E+00)
 search vector abs. value=  0.304E+01
 bond charge predicted
       N       E                     dE             d eps       ncg     rms          rms(c)
DAV:   1    -0.607508412548E+02   -0.21796E+00   -0.25097E+01   384   0.334E+01    0.233E+00
DAV:   2    -0.606320122270E+02    0.11883E+00   -0.65643E-01   424   0.510E+00    0.120E+00
DAV:   3    -0.605894598104E+02    0.42552E-01   -0.16577E-01   504   0.255E+00    0.404E-01
DAV:   4    -0.605882460190E+02    0.12138E-02   -0.11136E-02   504   0.681E-01    0.208E-01
DAV:   5    -0.605881934575E+02    0.52562E-04   -0.18234E-03   496   0.249E-01    0.646E-02
DAV:   6    -0.605884841893E+02   -0.29073E-03   -0.37518E-04   400   0.128E-01    0.275E-02
DAV:   7    -0.605888056947E+02   -0.32151E-03   -0.26842E-04   376   0.874E-02    0.195E-02
DAV:   8    -0.605889805828E+02   -0.17489E-03   -0.58621E-05   344   0.534E-02    0.107E-02
DAV:   9    -0.605893236441E+02   -0.34306E-03   -0.28209E-04   368   0.648E-02    0.115E-02
DAV:  10    -0.605893670582E+02   -0.43414E-04   -0.30340E-05   384   0.355E-02
  61 F= -.60589367E+02 E0= -.60589364E+02  d E =-.564207E-01
 trial-energy change:   -0.056421  1 .order   -0.056232   -0.078084   -0.034380
 step:   0.5332(harm=  0.5332)  dis= 0.07212  next Energy=   -60.602702 (dE=-0.698E-01)
 bond charge predicted
       N       E                     dE             d eps       ncg     rms          rms(c)
DAV:   1    -0.607070129882E+02   -0.11769E+00   -0.15744E+01   384   0.265E+01    0.185E+00
DAV:   2    -0.606317562116E+02    0.75257E-01   -0.40484E-01   424   0.399E+00    0.949E-01
DAV:   3    -0.606041769129E+02    0.27579E-01   -0.10820E-01   504   0.204E+00    0.312E-01
DAV:   4    -0.606034475409E+02    0.72937E-03   -0.69149E-03   496   0.542E-01    0.162E-01
DAV:   5    -0.606034123122E+02    0.35229E-04   -0.11509E-03   504   0.199E-01    0.519E-02
DAV:   6    -0.606036467081E+02   -0.23440E-03   -0.22729E-04   360   0.103E-01    0.220E-02
DAV:   7    -0.606038990784E+02   -0.25237E-03   -0.18854E-04   336   0.750E-02    0.162E-02
DAV:   8    -0.606040407604E+02   -0.14168E-03   -0.46020E-05   336   0.494E-02    0.884E-03
DAV:   9    -0.606043230744E+02   -0.28231E-03   -0.19632E-04   376   0.545E-02    0.964E-03
DAV:  10    -0.606043641010E+02   -0.41027E-04   -0.21847E-05   384   0.296E-02
  62 F= -.60604364E+02 E0= -.60604362E+02  d E =-.714177E-01
 curvature:  -3.10 expect dE=-0.101E+01 dE for cont linesearch -0.279E-04
 trial: gam= 1.50692 g(F)=  0.255E+00 g(S)=  0.717E-01 ort = 0.524E-02 (trialstep = 0.145E+00)
 search vector abs. value=  0.725E+01
 bond charge predicted
       N       E                     dE             d eps       ncg     rms          rms(c)
DAV:   1    -0.607465932553E+02   -0.14227E+00   -0.13719E+01   384   0.249E+01    0.183E+00
DAV:   2    -0.606716193440E+02    0.74974E-01   -0.36137E-01   416   0.377E+00    0.928E-01
DAV:   3    -0.606462429918E+02    0.25376E-01   -0.11067E-01   472   0.205E+00    0.285E-01
DAV:   4    -0.606455379343E+02    0.70506E-03   -0.66792E-03   488   0.551E-01    0.151E-01
DAV:   5    -0.606454477145E+02    0.90220E-04   -0.13530E-03   480   0.210E-01    0.502E-02
DAV:   6    -0.606456619268E+02   -0.21421E-03   -0.24468E-04   368   0.110E-01    0.221E-02
DAV:   7    -0.606458911901E+02   -0.22926E-03   -0.17217E-04   312   0.748E-02    0.149E-02
DAV:   8    -0.606460248687E+02   -0.13368E-03   -0.45145E-05   320   0.511E-02    0.835E-03
DAV:   9    -0.606462984465E+02   -0.27358E-03   -0.17868E-04   400   0.525E-02    0.901E-03
DAV:  10    -0.606463444848E+02   -0.46038E-04   -0.19935E-05   384   0.272E-02
  63 F= -.60646344E+02 E0= -.60646343E+02  d E =-.419804E-01
 trial-energy change:   -0.041980  1 .order   -0.041784   -0.048454   -0.035113
 step:   0.5263(harm=  0.5263)  dis= 0.11528  next Energy=   -60.692358 (dE=-0.880E-01)
 bond charge predicted
       N       E                     dE             d eps       ncg     rms          rms(c)
DAV:   1    -0.614362264280E+02   -0.78993E+00   -0.96339E+01   384   0.653E+01    0.512E+00
DAV:   2    -0.608773076040E+02    0.55892E+00   -0.27709E+00   416   0.109E+01    0.255E+00
DAV:   3    -0.607033578973E+02    0.17395E+00   -0.75328E-01   472   0.556E+00    0.898E-01
DAV:   4    -0.606965036185E+02    0.68543E-02   -0.49529E-02   512   0.146E+00    0.446E-01
DAV:   5    -0.606946984595E+02    0.18052E-02   -0.84766E-03   496   0.559E-01    0.137E-01
DAV:   6    -0.606951958470E+02   -0.49739E-03   -0.14225E-03   504   0.274E-01    0.589E-02
DAV:   7    -0.606956884550E+02   -0.49261E-03   -0.10463E-03   424   0.164E-01    0.438E-02
DAV:   8    -0.606959698284E+02   -0.28137E-03   -0.30179E-04   408   0.104E-01    0.285E-02
DAV:   9    -0.606964242480E+02   -0.45442E-03   -0.62434E-04   344   0.987E-02    0.201E-02
DAV:  10    -0.606965350464E+02   -0.11080E-03   -0.79632E-05   368   0.449E-02    0.992E-03
DAV:  11    -0.606966433869E+02   -0.10834E-03   -0.43165E-05   352   0.333E-02    0.496E-03
DAV:  12    -0.606967174382E+02   -0.74051E-04   -0.19200E-05   368   0.184E-02
  64 F= -.60696717E+02 E0= -.60696717E+02  d E =-.923533E-01
 curvature:  -5.71 expect dE=-0.234E+01 dE for cont linesearch -0.902E-03
 trial: gam= 1.21513 g(F)=  0.355E+00 g(S)=  0.555E-01 ort = 0.339E-01 (trialstep = 0.143E+00)
 search vector abs. value=  0.112E+02
 bond charge predicted
       N       E                     dE             d eps       ncg     rms          rms(c)
DAV:   1    -0.609165072222E+02   -0.21986E+00   -0.21629E+01   384   0.310E+01    0.229E+00
DAV:   2    -0.607958895368E+02    0.12062E+00   -0.57225E-01   392   0.480E+00    0.114E+00
DAV:   3    -0.607547752182E+02    0.41114E-01   -0.17335E-01   512   0.255E+00    0.372E-01
DAV:   4    -0.607540948035E+02    0.68041E-03   -0.10140E-02   480   0.655E-01    0.190E-01
DAV:   5    -0.607539064941E+02    0.18831E-03   -0.15431E-03   480   0.233E-01    0.623E-02
DAV:   6    -0.607542076299E+02   -0.30114E-03   -0.20335E-04   352   0.109E-01    0.260E-02
DAV:   7    -0.607545266358E+02   -0.31901E-03   -0.25131E-04   352   0.869E-02    0.205E-02
DAV:   8    -0.607547576921E+02   -0.23106E-03   -0.11845E-04   320   0.668E-02    0.120E-02
DAV:   9    -0.607550549531E+02   -0.29726E-03   -0.17342E-04   400   0.528E-02    0.101E-02
DAV:  10    -0.607551353648E+02   -0.80412E-04   -0.23261E-05   376   0.278E-02
  65 F= -.60755135E+02 E0= -.60755134E+02  d E =-.584179E-01
 ZBRENT: can't locate minimum, use default step
 trial-energy change:   -0.058418  1 .order   -0.058942   -0.064677   -0.053206
 step:   0.5728(harm=  0.8075)  dis= 0.16075  next Energy=   -60.879050 (dE=-0.182E+00)
 bond charge predicted
       N       E                     dE             d eps       ncg     rms          rms(c)
DAV:   1    -0.624010154454E+02   -0.16460E+01   -0.19878E+02   384   0.944E+01    0.774E+00
DAV:   2    -0.612288805710E+02    0.11721E+01   -0.65545E+00   408   0.169E+01    0.359E+00
DAV:   3    -0.608877712700E+02    0.34111E+00   -0.13344E+00   504   0.727E+00    0.157E+00
DAV:   4    -0.608679115857E+02    0.19860E-01   -0.99556E-02   512   0.192E+00    0.682E-01
DAV:   5    -0.608632372666E+02    0.46743E-02   -0.16216E-02   512   0.764E-01    0.192E-01
DAV:   6    -0.608631962211E+02    0.41046E-04   -0.19058E-03   512   0.310E-01    0.834E-02
DAV:   7    -0.608632608040E+02   -0.64583E-04   -0.17417E-03   432   0.212E-01    0.708E-02
DAV:   8    -0.608633906109E+02   -0.12981E-03   -0.81543E-04   376   0.148E-01    0.512E-02
DAV:   9    -0.608638599677E+02   -0.46936E-03   -0.81243E-04   360   0.125E-01    0.263E-02
DAV:  10    -0.608640977944E+02   -0.23783E-03   -0.12272E-04   352   0.661E-02    0.115E-02
DAV:  11    -0.608642929482E+02   -0.19515E-03   -0.61776E-05   360   0.405E-02    0.613E-03
DAV:  12    -0.608644313758E+02   -0.13843E-03   -0.38729E-05   368   0.245E-02    0.309E-03
DAV:  13    -0.608645091975E+02   -0.77822E-04   -0.22894E-05   360   0.146E-02
  66 F= -.60864509E+02 E0= -.60864503E+02  d E =-.167792E+00
 curvature:  -8.76 expect dE=-0.151E+01 dE for cont linesearch -0.147E-01
 ZBRENT: increasing intervall
 opt :   1.4321  next Energy=   -60.781164 (dE=-0.844E-01)
 bond charge predicted
       N       E                     dE             d eps       ncg     rms          rms(c)
DAV:   1    -0.678491749528E+02   -0.69847E+01   -0.93575E+02   448   0.235E+02    0.196E+01
DAV:   2    -0.620735152462E+02    0.57757E+01   -0.39601E+01   448   0.401E+01    0.802E+00
DAV:   3    -0.609911869550E+02    0.10823E+01   -0.48575E+00   520   0.141E+01    0.482E+00
DAV:   4    -0.608233066176E+02    0.16788E+00   -0.55987E-01   608   0.496E+00    0.173E+00
DAV:   5    -0.608026874478E+02    0.20619E-01   -0.66130E-02   536   0.159E+00    0.356E-01
DAV:   6    -0.608000112432E+02    0.26762E-02   -0.98655E-03   520   0.629E-01    0.147E-01
DAV:   7    -0.607986919813E+02    0.13193E-02   -0.36396E-03   440   0.350E-01    0.112E-01
DAV:   8    -0.607988083534E+02   -0.11637E-03   -0.16008E-03   440   0.205E-01    0.725E-02
DAV:   9    -0.608003998772E+02   -0.15915E-02   -0.16346E-03   360   0.180E-01    0.436E-02
DAV:  10    -0.608017210485E+02   -0.13212E-02   -0.76440E-04   416   0.113E-01    0.159E-02
DAV:  11    -0.608021655193E+02   -0.44447E-03   -0.14425E-04   392   0.530E-02    0.760E-03
DAV:  12    -0.608024611721E+02   -0.29565E-03   -0.11723E-04   376   0.323E-02    0.384E-03
DAV:  13    -0.608025011731E+02   -0.40001E-04   -0.14613E-05   360   0.168E-02
  67 F= -.60802501E+02 E0= -.60802375E+02  d E =-.105784E+00
 curvature:  49.54 expect dE= 0.710E+02 dE for cont linesearch  0.718E+00
 ZBRENT: bracketing found
 ZBRENT: interpolating
 opt :   0.7912  next Energy=   -60.879497 (dE=-0.183E+00)
 bond charge predicted
       N       E                     dE             d eps       ncg     rms          rms(c)
DAV:   1    -0.638225376198E+02   -0.30201E+01   -0.58987E+02   384   0.204E+02    0.101E+01
DAV:   2    -0.621499921514E+02    0.16725E+01   -0.18350E+01   384   0.328E+01    0.564E+00
DAV:   3    -0.609549533289E+02    0.11950E+01   -0.44271E+00   488   0.122E+01    0.142E+00
DAV:   4    -0.609086963032E+02    0.46257E-01   -0.23533E-01   536   0.294E+00    0.739E-01
DAV:   5    -0.608792516322E+02    0.29445E-01   -0.39141E-02   496   0.108E+00    0.312E-01
DAV:   6    -0.608708526217E+02    0.83990E-02   -0.55250E-03   512   0.541E-01    0.149E-01
DAV:   7    -0.608654379418E+02    0.54147E-02   -0.48959E-03   512   0.405E-01    0.114E-01
DAV:   8    -0.608668110298E+02   -0.13731E-02   -0.37624E-03   440   0.295E-01    0.757E-02
DAV:   9    -0.608697704591E+02   -0.29594E-02   -0.14817E-03   456   0.214E-01    0.404E-02
DAV:  10    -0.608717784404E+02   -0.20080E-02   -0.52062E-04   456   0.155E-01    0.254E-02
DAV:  11    -0.608726439225E+02   -0.86548E-03   -0.16365E-04   384   0.944E-02    0.113E-02
DAV:  12    -0.608729248715E+02   -0.28095E-03   -0.46457E-05   376   0.498E-02    0.556E-03
DAV:  13    -0.608730143599E+02   -0.89488E-04   -0.19994E-05   352   0.293E-02
  68 F= -.60873014E+02 E0= -.60873011E+02  d E =-.176297E+00
 curvature:  -1.03 expect dE=-0.430E+00 dE for cont linesearch -0.113E-02
 ZBRENT: bisectioning
 opt :   1.1117  next Energy=   -60.902058 (dE=-0.205E+00)
 bond charge predicted
       N       E                     dE             d eps       ncg     rms          rms(c)
DAV:   1    -0.618946596228E+02   -0.10217E+01   -0.11752E+02   384   0.721E+01    0.596E+00
DAV:   2    -0.611266114806E+02    0.76805E+00   -0.36360E+00   456   0.127E+01    0.289E+00
DAV:   3    -0.608838971203E+02    0.24271E+00   -0.93121E-01   512   0.616E+00    0.116E+00
DAV:   4    -0.608735383752E+02    0.10359E-01   -0.60620E-02   512   0.153E+00    0.547E-01
DAV:   5    -0.608702041926E+02    0.33342E-02   -0.10199E-02   496   0.606E-01    0.166E-01
DAV:   6    -0.608704682690E+02   -0.26408E-03   -0.12050E-03   456   0.256E-01    0.693E-02
DAV:   7    -0.608710739271E+02   -0.60566E-03   -0.12539E-03   416   0.181E-01    0.592E-02
DAV:   8    -0.608718793877E+02   -0.80546E-03   -0.71771E-04   384   0.138E-01    0.424E-02
DAV:   9    -0.608728757817E+02   -0.99639E-03   -0.59002E-04   392   0.105E-01    0.203E-02
DAV:  10    -0.608731921733E+02   -0.31639E-03   -0.86439E-05   376   0.509E-02    0.878E-03
DAV:  11    -0.608734829477E+02   -0.29077E-03   -0.96520E-05   360   0.368E-02    0.394E-03
DAV:  12    -0.608736234204E+02   -0.14047E-03   -0.39739E-05   376   0.185E-02    0.206E-03
DAV:  13    -0.608736639567E+02   -0.40536E-04   -0.14224E-05   360   0.111E-02
  69 F= -.60873664E+02 E0= -.60873649E+02  d E =-.176947E+00
 curvature: -26.70 expect dE=-0.211E+02 dE for cont linesearch -0.192E-01
 ZBRENT: interpolating
 opt :   0.9680  next Energy=   -60.880110 (dE=-0.183E+00)
 bond charge predicted
       N       E                     dE             d eps       ncg     rms          rms(c)
DAV:   1    -0.610977878450E+02   -0.22416E+00   -0.25311E+01   448   0.358E+01    0.244E+00
DAV:   2    -0.609367520319E+02    0.16104E+00   -0.50925E-01   384   0.518E+00    0.124E+00
DAV:   3    -0.608823821992E+02    0.54370E-01   -0.22909E-01   480   0.272E+00    0.362E-01
DAV:   4    -0.608802455020E+02    0.21367E-02   -0.12766E-02   512   0.719E-01    0.188E-01
DAV:   5    -0.608787934549E+02    0.14520E-02   -0.23155E-03   512   0.268E-01    0.734E-02
DAV:   6    -0.608785296665E+02    0.26379E-03   -0.52494E-04   504   0.149E-01    0.281E-02
DAV:   7    -0.608785196027E+02    0.10064E-04   -0.17713E-04   360   0.736E-02
  70 F= -.60878520E+02 E0= -.60878513E+02  d E =-.181802E+00
 curvature:  -8.97 expect dE=-0.535E+01 dE for cont linesearch -0.458E-03
 trial: gam= 1.75273 g(F)=  0.559E+00 g(S)=  0.374E-01 ort =-0.239E-01 (trialstep = 0.988E-01)
 search vector abs. value=  0.349E+02
 bond charge predicted
       N       E                     dE             d eps       ncg     rms          rms(c)
DAV:   1    -0.611731783607E+02   -0.29465E+00   -0.33709E+01   384   0.384E+01    0.285E+00
DAV:   2    -0.609913476919E+02    0.18183E+00   -0.94063E-01   448   0.625E+00    0.143E+00
DAV:   3    -0.609255097311E+02    0.65838E-01   -0.25301E-01   488   0.310E+00    0.542E-01
DAV:   4    -0.609239161101E+02    0.15936E-02   -0.14465E-02   504   0.767E-01    0.273E-01
DAV:   5    -0.609233840572E+02    0.53205E-03   -0.24033E-03   488   0.293E-01    0.756E-02
DAV:   6    -0.609237102631E+02   -0.32621E-03   -0.30263E-04   352   0.132E-01    0.345E-02
DAV:   7    -0.609241223132E+02   -0.41205E-03   -0.32103E-04   392   0.100E-01    0.244E-02
DAV:   8    -0.609244851443E+02   -0.36283E-03   -0.13853E-04   352   0.714E-02    0.152E-02
DAV:   9    -0.609251077911E+02   -0.62265E-03   -0.27695E-04   400   0.619E-02    0.119E-02
DAV:  10    -0.609252785607E+02   -0.17077E-03   -0.36453E-05   384   0.300E-02    0.524E-03
DAV:  11    -0.609254642061E+02   -0.18565E-03   -0.62969E-05   360   0.240E-02    0.251E-03
DAV:  12    -0.609255099386E+02   -0.45733E-04   -0.89995E-06   384   0.122E-02
  71 F= -.60925510E+02 E0= -.60925482E+02  d E =-.469903E-01
 trial-energy change:   -0.046990  1 .order   -0.043007   -0.054851   -0.031163
 step:   0.1502(harm=  0.2289)  dis= 0.07572  next Energy=   -60.934161 (dE=-0.556E-01)
 bond charge predicted
       N       E                     dE             d eps       ncg     rms          rms(c)
DAV:   1    -0.610065044979E+02   -0.81040E-01   -0.92121E+00   384   0.203E+01    0.147E+00
DAV:   2    -0.609561243934E+02    0.50380E-01   -0.25582E-01   456   0.318E+00    0.738E-01
DAV:   3    -0.609373766058E+02    0.18748E-01   -0.71375E-02   496   0.161E+00    0.259E-01
DAV:   4    -0.609369729232E+02    0.40368E-03   -0.38022E-03   488   0.401E-01    0.137E-01
DAV:   5    -0.609368972092E+02    0.75714E-04   -0.61154E-04   496   0.144E-01
  72 F= -.60936897E+02 E0= -.60936840E+02  d E =-.583776E-01
 curvature:  -4.56 expect dE=-0.210E+01 dE for cont linesearch -0.331E-02
 ZBRENT: increasing intervall
 opt :   0.2528  next Energy=   -60.937193 (dE=-0.587E-01)
 bond charge predicted
       N       E                     dE             d eps       ncg     rms          rms(c)
DAV:   1    -0.612249103168E+02   -0.28794E+00   -0.36824E+01   384   0.401E+01    0.304E+00
DAV:   2    -0.610142131526E+02    0.21070E+00   -0.10733E+00   408   0.667E+00    0.152E+00
DAV:   3    -0.609406149262E+02    0.73598E-01   -0.28399E-01   496   0.331E+00    0.580E-01
DAV:   4    -0.609385239136E+02    0.20910E-02   -0.16633E-02   488   0.822E-01    0.296E-01
DAV:   5    -0.609380367131E+02    0.48720E-03   -0.28266E-03   456   0.316E-01    0.854E-02
DAV:   6    -0.609385017959E+02   -0.46508E-03   -0.46441E-04   400   0.152E-01    0.378E-02
DAV:   7    -0.609392673671E+02   -0.76557E-03   -0.54376E-04   392   0.115E-01    0.381E-02
DAV:   8    -0.609400756163E+02   -0.80825E-03   -0.32395E-04   408   0.907E-02    0.234E-02
DAV:   9    -0.609409964457E+02   -0.92083E-03   -0.42500E-04   424   0.701E-02    0.108E-02
DAV:  10    -0.609412444606E+02   -0.24801E-03   -0.69405E-05   384   0.314E-02    0.437E-03
DAV:  11    -0.609413565231E+02   -0.11206E-03   -0.36513E-05   368   0.212E-02    0.192E-03
DAV:  12    -0.609413705609E+02   -0.14038E-04   -0.46602E-06   376   0.929E-03
  73 F= -.60941371E+02 E0= -.60941188E+02  d E =-.628510E-01
 curvature:  -0.41 expect dE=-0.239E+00 dE for cont linesearch -0.397E-03
 trial: gam= 0.46013 g(F)=  0.492E+00 g(S)=  0.959E-01 ort =-0.185E+00 (trialstep = 0.130E+00)
 search vector abs. value=  0.781E+01
 bond charge predicted
       N       E                     dE             d eps       ncg     rms          rms(c)
DAV:   1    -0.611012270839E+02   -0.15987E+00   -0.11723E+01   384   0.230E+01    0.187E+00
DAV:   2    -0.610209291057E+02    0.80298E-01   -0.37220E-01   424   0.384E+00    0.937E-01
DAV:   3    -0.609934728955E+02    0.27456E-01   -0.11332E-01   504   0.210E+00    0.293E-01
DAV:   4    -0.609926103842E+02    0.86251E-03   -0.60806E-03   472   0.530E-01    0.161E-01
DAV:   5    -0.609924892448E+02    0.12114E-03   -0.12234E-03   480   0.193E-01    0.532E-02
DAV:   6    -0.609927687486E+02   -0.27950E-03   -0.25830E-04   328   0.108E-01    0.226E-02
DAV:   7    -0.609931677574E+02   -0.39901E-03   -0.17811E-04   352   0.774E-02    0.177E-02
DAV:   8    -0.609934672919E+02   -0.29953E-03   -0.62369E-05   352   0.528E-02    0.927E-03
DAV:   9    -0.609942598969E+02   -0.79261E-03   -0.41861E-04   400   0.602E-02    0.866E-03
DAV:  10    -0.609943439980E+02   -0.84101E-04   -0.21594E-05   384   0.244E-02
  74 F= -.60994344E+02 E0= -.60994104E+02  d E =-.529734E-01
 trial-energy change:   -0.052973  1 .order   -0.052143   -0.065154   -0.039131
 step:   0.2691(harm=  0.3246)  dis= 0.06503  next Energy=   -61.016428 (dE=-0.751E-01)
 bond charge predicted
       N       E                     dE             d eps       ncg     rms          rms(c)
DAV:   1    -0.611496502212E+02   -0.15539E+00   -0.13691E+01   384   0.249E+01    0.204E+00
DAV:   2    -0.610540062894E+02    0.95644E-01   -0.43917E-01   408   0.417E+00    0.102E+00
DAV:   3    -0.610216431234E+02    0.32363E-01   -0.13560E-01   496   0.229E+00    0.321E-01
DAV:   4    -0.610206215873E+02    0.10215E-02   -0.72835E-03   480   0.579E-01    0.176E-01
DAV:   5    -0.610204718465E+02    0.14974E-03   -0.14240E-03   472   0.210E-01    0.587E-02
DAV:   6    -0.610208160092E+02   -0.34416E-03   -0.28889E-04   328   0.117E-01    0.244E-02
DAV:   7    -0.610213161808E+02   -0.50017E-03   -0.24023E-04   392   0.863E-02    0.204E-02
DAV:   8    -0.610216494216E+02   -0.33324E-03   -0.77606E-05   344   0.572E-02    0.103E-02
DAV:   9    -0.610225593746E+02   -0.90995E-03   -0.50535E-04   400   0.657E-02    0.944E-03
DAV:  10    -0.610226376543E+02   -0.78280E-04   -0.21053E-05   384   0.256E-02
  75 F= -.61022638E+02 E0= -.61022318E+02  d E =-.812671E-01
 curvature:  -2.32 expect dE=-0.789E+00 dE for cont linesearch -0.165E-02
 ZBRENT: extrapolating
 opt :   0.3149  next Energy=   -61.024345 (dE=-0.830E-01)
[...]
DAV:   1    -0.613046746164E+02   -0.12269E-01   -0.40920E+00   384   0.140E+01    0.776E-01
DAV:   2    -0.612991747373E+02    0.54999E-02   -0.93476E-02   496   0.215E+00    0.440E-01
DAV:   3    -0.612950923099E+02    0.40824E-02   -0.17323E-02   496   0.801E-01    0.144E-01
DAV:   4    -0.612949881180E+02    0.10419E-03   -0.16651E-03   464   0.280E-01    0.713E-02
DAV:   5    -0.612950000763E+02   -0.11958E-04   -0.20838E-04   352   0.105E-01
  93 F= -.61295000E+02 E0= -.61294912E+02  d E =-.123812E-01
 curvature:  -1.75 expect dE=-0.113E+00 dE for cont linesearch -0.636E-03
 trial: gam= 0.00000 g(F)=  0.520E-01 g(S)=  0.123E-01 ort =-0.121E-01 (trialstep = 0.173E+00)
 search vector abs. value=  0.643E-01
 bond charge predicted
       N       E                     dE             d eps       ncg     rms          rms(c)
DAV:   1    -0.613035038861E+02   -0.85158E-02   -0.18160E-01   384   0.303E+00    0.143E-01
DAV:   2    -0.613034790853E+02    0.24801E-04   -0.49460E-03   504   0.466E-01    0.876E-02
DAV:   3    -0.613033386469E+02    0.14044E-03   -0.67988E-04   488   0.165E-01    0.305E-02
DAV:   4    -0.613033303401E+02    0.83069E-05   -0.74575E-05   304   0.589E-02
  94 F= -.61303330E+02 E0= -.61303219E+02  d E =-.833026E-02
 trial-energy change:   -0.008330  1 .order   -0.008247   -0.011128   -0.005366
 step:   0.3340(harm=  0.3340)  dis= 0.00746  next Energy=   -61.305745 (dE=-0.107E-01)
 bond charge predicted
       N       E                     dE             d eps       ncg     rms          rms(c)
DAV:   1    -0.613059415023E+02   -0.26029E-02   -0.15718E-01   384   0.281E+00    0.133E-01
DAV:   2    -0.613058821994E+02    0.59303E-04   -0.43139E-03   504   0.431E-01    0.814E-02
DAV:   3    -0.613057533379E+02    0.12886E-03   -0.57373E-04   496   0.151E-01    0.299E-02
DAV:   4    -0.613057438852E+02    0.94527E-05   -0.63895E-05   264   0.545E-02
  95 F= -.61305744E+02 E0= -.61305604E+02  d E =-.107438E-01
 curvature:  -0.17 expect dE=-0.746E-02 dE for cont linesearch -0.167E-05
 trial: gam= 0.70714 g(F)=  0.411E-01 g(S)=  0.357E-02 ort =-0.803E-03 (trialstep = 0.174E+00)
 search vector abs. value=  0.757E-01
 bond charge predicted
       N       E                     dE             d eps       ncg     rms          rms(c)
DAV:   1    -0.613118152402E+02   -0.60619E-02   -0.20805E-01   384   0.329E+00    0.147E-01
DAV:   2    -0.613116288773E+02    0.18636E-03   -0.61699E-03   528   0.529E-01    0.897E-02
DAV:   3    -0.613114758191E+02    0.15306E-03   -0.73309E-04   488   0.171E-01    0.409E-02
DAV:   4    -0.613114598242E+02    0.15995E-04   -0.74898E-05   240   0.599E-02
  96 F= -.61311460E+02 E0= -.61311280E+02  d E =-.571594E-02
 trial-energy change:   -0.005716  1 .order   -0.005763   -0.007691   -0.003834
 step:   0.3476(harm=  0.3476)  dis= 0.00761  next Energy=   -61.313412 (dE=-0.767E-02)
 bond charge predicted
       N       E                     dE             d eps       ncg     rms          rms(c)
DAV:   1    -0.613136577353E+02   -0.21819E-02   -0.20446E-01   384   0.326E+00    0.145E-01
DAV:   2    -0.613134732561E+02    0.18448E-03   -0.60061E-03   528   0.521E-01    0.885E-02
DAV:   3    -0.613133245012E+02    0.14875E-03   -0.71975E-04   480   0.168E-01    0.405E-02
DAV:   4    -0.613133085821E+02    0.15919E-04   -0.73338E-05   256   0.592E-02
  97 F= -.61313309E+02 E0= -.61313080E+02  d E =-.756470E-02
 curvature:  -0.30 expect dE=-0.401E-02 dE for cont linesearch -0.820E-07
 trial: gam= 0.27089 g(F)=  0.997E-02 g(S)=  0.346E-02 ort = 0.144E-03 (trialstep = 0.209E+00)
 search vector abs. value=  0.191E-01
 bond charge predicted
       N       E                     dE             d eps       ncg     rms          rms(c)
DAV:   1    -0.613157339843E+02   -0.24095E-02   -0.75189E-02   384   0.197E+00    0.710E-02
DAV:   2    -0.613158003646E+02   -0.66380E-04   -0.15474E-03   488   0.272E-01    0.441E-02
DAV:   3    -0.613157673436E+02    0.33021E-04   -0.11521E-04   280   0.812E-02
  98 F= -.61315767E+02 E0= -.61315558E+02  d E =-.245876E-02
 trial-energy change:   -0.002459  1 .order   -0.002458   -0.002815   -0.002102
 step:   0.8252(harm=  0.8252)  dis= 0.00852  next Energy=   -61.318866 (dE=-0.556E-02)
 bond charge predicted
       N       E                     dE             d eps       ncg     rms          rms(c)
DAV:   1    -0.613187767178E+02   -0.29764E-02   -0.65540E-01   384   0.583E+00    0.212E-01
DAV:   2    -0.613193614818E+02   -0.58476E-03   -0.13573E-02   504   0.808E-01    0.132E-01
DAV:   3    -0.613190957562E+02    0.26573E-03   -0.11982E-03   504   0.243E-01    0.485E-02
DAV:   4    -0.613190764543E+02    0.19302E-04   -0.13205E-04   312   0.819E-02
  99 F= -.61319076E+02 E0= -.61318914E+02  d E =-.576787E-02
 curvature:  -0.58 expect dE=-0.131E-01 dE for cont linesearch -0.688E-05
 trial: gam= 1.64634 g(F)=  0.200E-01 g(S)=  0.234E-02 ort = 0.474E-03 (trialstep = 0.838E-01)
 search vector abs. value=  0.756E-01
 bond charge predicted
       N       E                     dE             d eps       ncg     rms          rms(c)
DAV:   1    -0.613208821904E+02   -0.17864E-02   -0.45356E-02   384   0.149E+00    0.557E-02
DAV:   2    -0.613209186793E+02   -0.36489E-04   -0.92579E-04   512   0.208E-01
 100 F= -.61320919E+02 E0= -.61320763E+02  d E =-.184223E-02
 ZBRENT: can't locate minimum, use default step
 trial-energy change:   -0.001842  1 .order   -0.001824   -0.001939   -0.001710
 step:   0.3351(harm=  0.7095)  dis= 0.00749  next Energy=   -61.327285 (dE=-0.821E-02)
 bond charge predicted
       N       E                     dE             d eps       ncg     rms          rms(c)
DAV:   1    -0.613249168986E+02   -0.40347E-02   -0.40727E-01   384   0.445E+00    0.177E-01
DAV:   2    -0.613251943820E+02   -0.27748E-03   -0.83155E-03   528   0.634E-01    0.111E-01
DAV:   3    -0.613250351523E+02    0.15923E-03   -0.66331E-04   488   0.175E-01    0.405E-02
DAV:   4    -0.613250246642E+02    0.10488E-04   -0.63308E-05   288   0.590E-02
 101 F= -.61325025E+02 E0= -.61324893E+02  d E =-.594821E-02
 curvature:  -0.74 expect dE=-0.632E-02 dE for cont linesearch -0.149E-02
 ZBRENT: increasing intervall
 opt :   0.8379  next Energy=   -61.327122 (dE=-0.805E-02)
 bond charge predicted
       N       E                     dE             d eps       ncg     rms          rms(c)
DAV:   1    -0.613266080456E+02   -0.15729E-02   -0.16269E+00   384   0.892E+00    0.334E-01
DAV:   2    -0.613278461360E+02   -0.12381E-02   -0.33165E-02   512   0.126E+00    0.207E-01
DAV:   3    -0.613272774659E+02    0.56867E-03   -0.26219E-03   552   0.353E-01    0.792E-02
DAV:   4    -0.613272344652E+02    0.43001E-04   -0.24855E-04   440   0.111E-01
 102 F= -.61327234E+02 E0= -.61327140E+02  d E =-.815801E-02
 curvature:  -1.05 expect dE=-0.219E-01 dE for cont linesearch -0.160E-03
 trial: gam= 1.17830 g(F)=  0.177E-01 g(S)=  0.320E-02 ort =-0.340E-02 (trialstep = 0.151E+00)
 search vector abs. value=  0.118E+00
 bond charge predicted
       N       E                     dE             d eps       ncg     rms          rms(c)
DAV:   1    -0.613292028772E+02   -0.19254E-02   -0.21088E-01   384   0.309E+00    0.127E-01
DAV:   2    -0.613294328169E+02   -0.22994E-03   -0.44736E-03   504   0.448E-01    0.779E-02
DAV:   3    -0.613293660701E+02    0.66747E-04   -0.21961E-04   408   0.111E-01
 103 F= -.61329366E+02 E0= -.61329274E+02  d E =-.213160E-02
 trial-energy change:   -0.002132  1 .order   -0.002188   -0.002540   -0.001835
 step:   0.5419(harm=  0.5419)  dis= 0.01640  next Energy=   -61.331808 (dE=-0.457E-02)
 bond charge predicted
       N       E                     dE             d eps       ncg     rms          rms(c)
DAV:   1    -0.613303799475E+02   -0.94713E-03   -0.14295E+00   384   0.806E+00    0.329E-01
DAV:   2    -0.613319943587E+02   -0.16144E-02   -0.30600E-02   504   0.116E+00    0.202E-01
DAV:   3    -0.613315494625E+02    0.44490E-03   -0.15831E-03   600   0.304E-01    0.713E-02
DAV:   4    -0.613315047490E+02    0.44713E-04   -0.21200E-04   392   0.111E-01
 104 F= -.61331505E+02 E0= -.61331421E+02  d E =-.427028E-02
 curvature:  -1.89 expect dE=-0.524E-01 dE for cont linesearch -0.166E-04
 trial: gam= 0.97438 g(F)=  0.241E-01 g(S)=  0.363E-02 ort =-0.102E-02 (trialstep = 0.196E+00)
 search vector abs. value=  0.138E+00
 bond charge predicted
       N       E                     dE             d eps       ncg     rms          rms(c)
DAV:   1    -0.613352837196E+02   -0.37343E-02   -0.42627E-01   384   0.440E+00    0.193E-01
DAV:   2    -0.613357181476E+02   -0.43443E-03   -0.99996E-03   496   0.705E-01    0.118E-01
DAV:   3    -0.613355412923E+02    0.17686E-03   -0.69935E-04   576   0.197E-01    0.380E-02
DAV:   4    -0.613355299668E+02    0.11326E-04   -0.74145E-05   256   0.658E-02
 105 F= -.61335530E+02 E0= -.61335431E+02  d E =-.402522E-02
 trial-energy change:   -0.004025  1 .order   -0.004046   -0.005232   -0.002861
 step:   0.4323(harm=  0.4323)  dis= 0.01389  next Energy=   -61.337276 (dE=-0.577E-02)
 bond charge predicted
       N       E                     dE             d eps       ncg     rms          rms(c)
DAV:   1    -0.613368865337E+02   -0.13452E-02   -0.61964E-01   384   0.530E+00    0.230E-01
DAV:   2    -0.613375327772E+02   -0.64624E-03   -0.14522E-02   496   0.846E-01    0.141E-01
DAV:   3    -0.613372802466E+02    0.25253E-03   -0.10022E-03   584   0.237E-01    0.458E-02
DAV:   4    -0.613372623006E+02    0.17946E-04   -0.10798E-04   280   0.789E-02
 106 F= -.61337262E+02 E0= -.61337140E+02  d E =-.575755E-02
 curvature:  -1.11 expect dE=-0.206E-01 dE for cont linesearch -0.999E-06
 trial: gam= 0.72172 g(F)=  0.169E-01 g(S)=  0.156E-02 ort = 0.351E-03 (trialstep = 0.243E+00)
 search vector abs. value=  0.906E-01
 bond charge predicted
       N       E                     dE             d eps       ncg     rms          rms(c)
DAV:   1    -0.613406979643E+02   -0.34177E-02   -0.42562E-01   384   0.436E+00    0.201E-01
DAV:   2    -0.613410739208E+02   -0.37596E-03   -0.99395E-03   512   0.694E-01    0.123E-01
DAV:   3    -0.613408755097E+02    0.19841E-03   -0.67187E-04   568   0.195E-01    0.416E-02
DAV:   4    -0.613408614028E+02    0.14107E-04   -0.78749E-05   232   0.678E-02
 107 F= -.61340861E+02 E0= -.61340707E+02  d E =-.359910E-02
 trial-energy change:   -0.003599  1 .order   -0.003635   -0.004549   -0.002721
 step:   0.6052(harm=  0.6052)  dis= 0.01484  next Energy=   -61.342922 (dE=-0.566E-02)
 bond charge predicted
       N       E                     dE             d eps       ncg     rms          rms(c)
DAV:   1    -0.613424983997E+02   -0.16229E-02   -0.94400E-01   384   0.649E+00    0.299E-01
DAV:   2    -0.613433500878E+02   -0.85169E-03   -0.22167E-02   520   0.103E+00    0.183E-01
DAV:   3    -0.613429074687E+02    0.44262E-03   -0.14646E-03   592   0.294E-01    0.621E-02
DAV:   4    -0.613428758887E+02    0.31580E-04   -0.18706E-04   352   0.101E-01
 108 F= -.61342876E+02 E0= -.61342662E+02  d E =-.561359E-02
 curvature:  -1.47 expect dE=-0.432E-01 dE for cont linesearch -0.292E-06
 trial: gam= 1.69558 g(F)=  0.258E-01 g(S)=  0.372E-02 ort = 0.134E-03 (trialstep = 0.985E-01)
 search vector abs. value=  0.290E+00
 bond charge predicted
       N       E                     dE             d eps       ncg     rms          rms(c)
DAV:   1    -0.613454864633E+02   -0.25790E-02   -0.21514E-01   384   0.307E+00    0.144E-01
DAV:   2    -0.613456682400E+02   -0.18178E-03   -0.45924E-03   520   0.476E-01    0.874E-02
DAV:   3    -0.613455656263E+02    0.10261E-03   -0.26438E-04   368   0.130E-01    0.224E-02
DAV:   4    -0.613455644486E+02    0.11778E-05   -0.47106E-05   216   0.550E-02
 109 F= -.61345564E+02 E0= -.61345344E+02  d E =-.268856E-02
 ZBRENT: can't locate minimum, use default step
 trial-energy change:   -0.002689  1 .order   -0.002691   -0.002925   -0.002456
 step:   0.3938(harm=  0.6136)  dis= 0.01663  next Energy=   -61.351992 (dE=-0.912E-02)
 bond charge predicted
       N       E                     dE             d eps       ncg     rms          rms(c)
DAV:   1    -0.613505352176E+02   -0.49696E-02   -0.19369E+00   384   0.921E+00    0.428E-01
DAV:   2    -0.613521858430E+02   -0.16506E-02   -0.41480E-02   496   0.139E+00    0.258E-01
DAV:   3    -0.613512975334E+02    0.88831E-03   -0.24916E-03   592   0.407E-01    0.693E-02
DAV:   4    -0.613512669286E+02    0.30605E-04   -0.32817E-04   424   0.136E-01
 110 F= -.61351267E+02 E0= -.61351027E+02  d E =-.839104E-02
 curvature:  -2.45 expect dE=-0.427E-01 dE for cont linesearch -0.149E-02
 ZBRENT: increasing intervall
 opt :   0.9846  next Energy=   -61.352208 (dE=-0.933E-02)
 bond charge predicted
       N       E                     dE             d eps       ncg     rms          rms(c)
DAV:   1    -0.613492012602E+02    0.20963E-02   -0.77648E+00   384   0.185E+01    0.864E-01
DAV:   2    -0.613557354270E+02   -0.65342E-02   -0.16912E-01   496   0.277E+00    0.519E-01
DAV:   3    -0.613521127386E+02    0.36227E-02   -0.10383E-02   592   0.789E-01    0.141E-01
DAV:   4    -0.613519674482E+02    0.14529E-03   -0.11777E-03   536   0.262E-01    0.517E-02
DAV:   5    -0.613519575946E+02    0.98536E-05   -0.10174E-04   312   0.759E-02
 111 F= -.61351958E+02 E0= -.61351663E+02  d E =-.908171E-02
 curvature:  -1.55 expect dE=-0.112E+00 dE for cont linesearch -0.620E-03
 trial: gam= 0.00000 g(F)=  0.642E-01 g(S)=  0.789E-02 ort =-0.108E-01 (trialstep = 0.276E+00)
 search vector abs. value=  0.721E-01
 bond charge predicted
       N       E                     dE             d eps       ncg     rms          rms(c)
DAV:   1    -0.613612083174E+02   -0.92409E-02   -0.63394E-01   384   0.535E+00    0.271E-01
DAV:   2    -0.613611543581E+02    0.53959E-04   -0.18469E-02   496   0.864E-01    0.164E-01
DAV:   3    -0.613605978974E+02    0.55646E-03   -0.28083E-03   536   0.320E-01    0.631E-02
DAV:   4    -0.613605485506E+02    0.49347E-04   -0.41561E-04   416   0.122E-01
 112 F= -.61360549E+02 E0= -.61360317E+02  d E =-.859096E-02
 trial-energy change:   -0.008591  1 .order   -0.008734   -0.019875    0.002406
 step:   0.2459(harm=  0.2459)  dis= 0.00504  next Energy=   -61.360822 (dE=-0.886E-02)
 bond charge predicted
       N       E                     dE             d eps       ncg     rms          rms(c)
DAV:   1    -0.613606917247E+02   -0.93827E-04   -0.78869E-03   384   0.593E-01    0.290E-02
DAV:   2    -0.613606966511E+02   -0.49264E-05   -0.25737E-04   408   0.106E-01
 113 F= -.61360697E+02 E0= -.61360462E+02  d E =-.873906E-02
 curvature:  -0.12 expect dE=-0.262E-02 dE for cont linesearch -0.355E-05
 trial: gam= 0.31526 g(F)=  0.188E-01 g(S)=  0.251E-02 ort =-0.144E-02 (trialstep = 0.270E+00)
 search vector abs. value=  0.275E-01
 bond charge predicted
       N       E                     dE             d eps       ncg     rms          rms(c)
DAV:   1    -0.613646661750E+02   -0.39745E-02   -0.21013E-01   384   0.324E+00    0.150E-01
DAV:   2    -0.613644228440E+02    0.24333E-03   -0.58872E-03   544   0.490E-01    0.945E-02
DAV:   3    -0.613642361283E+02    0.18672E-03   -0.95794E-04   496   0.181E-01    0.421E-02
DAV:   4    -0.613642163867E+02    0.19742E-04   -0.12221E-04   272   0.717E-02
 114 F= -.61364216E+02 E0= -.61364054E+02  d E =-.351974E-02
 trial-energy change:   -0.003520  1 .order   -0.003554   -0.005619   -0.001489
 step:   0.3670(harm=  0.3670)  dis= 0.00568  next Energy=   -61.364519 (dE=-0.382E-02)
 bond charge predicted
       N       E                     dE             d eps       ncg     rms          rms(c)
DAV:   1    -0.613645310176E+02   -0.29489E-03   -0.27178E-02   384   0.117E+00    0.581E-02
DAV:   2    -0.613644719179E+02    0.59100E-04   -0.75656E-04   512   0.178E-01
 115 F= -.61364472E+02 E0= -.61364329E+02  d E =-.377527E-02
 curvature:  -0.24 expect dE=-0.240E-02 dE for cont linesearch -0.456E-05
 trial: gam= 0.41756 g(F)=  0.931E-02 g(S)=  0.558E-03 ort = 0.720E-03 (trialstep = 0.289E+00)
 search vector abs. value=  0.153E-01
 bond charge predicted
       N       E                     dE             d eps       ncg     rms          rms(c)
DAV:   1    -0.613664400869E+02   -0.19091E-02   -0.11933E-01   384   0.246E+00    0.115E-01
DAV:   2    -0.613662801446E+02    0.15994E-03   -0.27055E-03   504   0.355E-01    0.679E-02
DAV:   3    -0.613661422848E+02    0.13786E-03   -0.51038E-04   504   0.134E-01    0.206E-02
DAV:   4    -0.613661384508E+02    0.38341E-05   -0.45951E-05   240   0.459E-02
 116 F= -.61366138E+02 E0= -.61366017E+02  d E =-.166653E-02
 trial-energy change:   -0.001667  1 .order   -0.001767   -0.002942   -0.000593
 step:   0.3622(harm=  0.3622)  dis= 0.00380  next Energy=   -61.366314 (dE=-0.184E-02)
 bond charge predicted
       N       E                     dE             d eps       ncg     rms          rms(c)
DAV:   1    -0.613662289749E+02   -0.86690E-04   -0.76256E-03   384   0.623E-01    0.281E-02
DAV:   2    -0.613662160693E+02    0.12906E-04   -0.15180E-04   328   0.878E-02
 117 F= -.61366216E+02 E0= -.61366099E+02  d E =-.174415E-02
 curvature:  -0.27 expect dE=-0.128E-02 dE for cont linesearch -0.312E-05
 trial: gam= 0.42720 g(F)=  0.380E-02 g(S)=  0.911E-03 ort = 0.418E-03 (trialstep = 0.304E+00)
 search vector abs. value=  0.786E-02
 bond charge predicted
       N       E                     dE             d eps       ncg     rms          rms(c)
DAV:   1    -0.613675354700E+02   -0.13065E-02   -0.63355E-02   448   0.185E+00    0.817E-02
DAV:   2    -0.613674587656E+02    0.76704E-04   -0.85702E-04   512   0.202E-01
 118 F= -.61367459E+02 E0= -.61367324E+02  d E =-.124270E-02
 ZBRENT: can't locate minimum, use default step
 trial-energy change:   -0.001243  1 .order   -0.001327   -0.001486   -0.001169
 step:   1.2152(harm=  1.4227)  dis= 0.00906  next Energy=   -61.369696 (dE=-0.348E-02)
 bond charge predicted
       N       E                     dE             d eps       ncg     rms          rms(c)
DAV:   1    -0.613693158978E+02   -0.17804E-02   -0.57006E-01   416   0.555E+00    0.248E-01
DAV:   2    -0.613686872799E+02    0.62862E-03   -0.85023E-03   504   0.633E-01    0.140E-01
DAV:   3    -0.613682236274E+02    0.46365E-03   -0.17901E-03   504   0.278E-01    0.388E-02
DAV:   4    -0.613682206541E+02    0.29733E-05   -0.11553E-04   336   0.802E-02
 119 F= -.61368221E+02 E0= -.61368022E+02  d E =-.200458E-02
 curvature:  -1.10 expect dE=-0.144E-01 dE for cont linesearch -0.323E-03
 trial: gam= 0.00000 g(F)=  0.123E-01 g(S)=  0.733E-03 ort =-0.152E-02 (trialstep = 0.292E+00)
 search vector abs. value=  0.131E-01
 bond charge predicted
       N       E                     dE             d eps       ncg     rms          rms(c)
DAV:   1    -0.613695722130E+02   -0.13486E-02   -0.13323E-01   384   0.231E+00    0.114E-01
DAV:   2    -0.613695706342E+02    0.15788E-05   -0.34159E-03   504   0.368E-01    0.684E-02
DAV:   3    -0.613694534902E+02    0.11714E-03   -0.44657E-04   448   0.130E-01    0.231E-02
DAV:   4    -0.613694496366E+02    0.38536E-05   -0.54028E-05   216   0.459E-02
 120 F= -.61369450E+02 E0= -.61369299E+02  d E =-.122898E-02
 trial-energy change:   -0.001229  1 .order   -0.001249   -0.003820    0.001321
 step:   0.2172(harm=  0.2172)  dis= 0.00190  next Energy=   -61.369640 (dE=-0.142E-02)
 bond charge predicted
       N       E                     dE             d eps       ncg     rms          rms(c)
DAV:   1    -0.613696337498E+02   -0.18026E-03   -0.89646E-03   384   0.596E-01    0.298E-02
DAV:   2    -0.613696346787E+02   -0.92892E-06   -0.23998E-04   424   0.100E-01
 121 F= -.61369635E+02 E0= -.61369474E+02  d E =-.141402E-02
 curvature:  -0.11 expect dE=-0.227E-03 dE for cont linesearch -0.126E-05
 trial: gam= 0.18993 g(F)=  0.165E-02 g(S)=  0.446E-03 ort =-0.390E-03 (trialstep = 0.277E+00)
 search vector abs. value=  0.241E-02
 reached required accuracy - stopping structural energy minimisation
 writing wavefunctions
Sun Mar  6 20:15:23 CST 2022
