Sun Mar  6 19:51:01 CST 2022
 running on   48 total cores
 distrk:  each k-point on   48 cores,    1 groups
 distr:  one band on   24 cores,    2 groups
 using from now: INCAR     
 vasp.5.3.5 31Mar14 (build Jan 11 2016 19:50:55) complex                        
  
 POSCAR found type information on POSCAR  B  C  Na
 POSCAR found :  3 types and       9 ions
 scaLAPACK will be used

 ----------------------------------------------------------------------------- 
|                                                                             |
|           W    W    AA    RRRRR   N    N  II  N    N   GGGG   !!!           |
|           W    W   A  A   R    R  NN   N  II  NN   N  G    G  !!!           |
|           W    W  A    A  R    R  N N  N  II  N N  N  G       !!!           |
|           W WW W  AAAAAA  RRRRR   N  N N  II  N  N N  G  GGG   !            |
|           WW  WW  A    A  R   R   N   NN  II  N   NN  G    G                |
|           W    W  A    A  R    R  N    N  II  N    N   GGGG   !!!           |
|                                                                             |
|      For optimal performance we recommend to set                            |
|        NCORE= 4 - approx SQRT( number of cores)                             |
|      NCORE specifies how many cores store one orbital (NPAR=cpu/NCORE).     |
|      This setting can  greatly improve the performance of VASP for DFT.     |
|      The default, NPAR=number of cores might be grossly inefficient         |
|      on modern multi-core architectures or massively parallel machines.     |
|      Do your own testing !!!!                                               |
|      Unfortunately you need to use the default for GW and RPA calculations. |
|      (for HF NCORE is supported but not extensively tested yet)             |
|                                                                             |
 ----------------------------------------------------------------------------- 

 LDA part: xc-table for Pade appr. of Perdew
 POSCAR, INCAR and KPOINTS ok, starting setup
 WARNING: small aliasing (wrap around) errors must be expected
 FFT: planning ...
 WAVECAR not read
 entering main loop
       N       E                     dE             d eps       ncg     rms          rms(c)
DAV:   1     0.269565372586E+03    0.26957E+03   -0.11684E+04   472   0.828E+02
DAV:   2    -0.181428950811E+01   -0.27138E+03   -0.26277E+03   568   0.224E+02
DAV:   3    -0.647295540595E+02   -0.62915E+02   -0.62634E+02   472   0.108E+02
DAV:   4    -0.680474711204E+02   -0.33179E+01   -0.32942E+01   536   0.329E+01
DAV:   5    -0.681439786724E+02   -0.96508E-01   -0.96180E-01   512   0.512E+00    0.131E+01
DAV:   6    -0.615155432914E+02    0.66284E+01   -0.14889E+01   472   0.269E+01    0.688E+00
DAV:   7    -0.598836628247E+02    0.16319E+01   -0.53351E+00   520   0.119E+01    0.337E+00
DAV:   8    -0.595401059223E+02    0.34356E+00   -0.10333E+00   576   0.494E+00    0.145E+00
DAV:   9    -0.594168457553E+02    0.12326E+00   -0.15421E-01   544   0.198E+00    0.522E-01
DAV:  10    -0.593753113686E+02    0.41534E-01   -0.41376E-02   512   0.987E-01    0.284E-01
DAV:  11    -0.593534154255E+02    0.21896E-01   -0.17294E-02   520   0.614E-01    0.177E-01
DAV:  12    -0.593472608126E+02    0.61546E-02   -0.12534E-02   488   0.454E-01    0.108E-01
DAV:  13    -0.593507335916E+02   -0.34728E-02   -0.19623E-03   456   0.258E-01    0.611E-02
DAV:  14    -0.593523866845E+02   -0.16531E-02   -0.13155E-03   400   0.121E-01    0.428E-02
DAV:  15    -0.593558547469E+02   -0.34681E-02   -0.14451E-03   384   0.131E-01    0.338E-02
DAV:  16    -0.593580391732E+02   -0.21844E-02   -0.10626E-03   352   0.693E-02    0.149E-02
DAV:  17    -0.593591514016E+02   -0.11122E-02   -0.49187E-04   304   0.466E-02    0.108E-02
DAV:  18    -0.593597114091E+02   -0.56001E-03   -0.23206E-04   312   0.358E-02    0.618E-03
DAV:  19    -0.593598674329E+02   -0.15602E-03   -0.49094E-05   296   0.243E-02    0.253E-03
DAV:  20    -0.593599229190E+02   -0.55486E-04   -0.15517E-05   304   0.149E-02
   1 F= -.59359923E+02 E0= -.59343873E+02  d E =-.593599E+02
 curvature:   0.00 expect dE= 0.000E+00 dE for cont linesearch  0.000E+00
 trial: gam= 0.00000 g(F)=  0.119E+01 g(S)=  0.284E+00 ort = 0.000E+00 (trialstep = 0.100E+01)
 search vector abs. value=  0.148E+01
 bond charge predicted
       N       E                     dE             d eps       ncg     rms          rms(c)
DAV:   1    -0.586689803826E+02    0.69089E+00   -0.20102E+02   400   0.114E+02    0.384E+00
DAV:   2    -0.590663722666E+02   -0.39739E+00   -0.70720E+00   512   0.177E+01    0.246E+00
DAV:   3    -0.589580104836E+02    0.10836E+00   -0.35566E-01   528   0.398E+00    0.143E+00
DAV:   4    -0.589236217070E+02    0.34389E-01   -0.95510E-02   512   0.216E+00    0.331E-01
DAV:   5    -0.589228635823E+02    0.75812E-03   -0.12706E-02   576   0.681E-01    0.124E-01
DAV:   6    -0.589226128638E+02    0.25072E-03   -0.87370E-04   528   0.194E-01    0.638E-02
DAV:   7    -0.589226129059E+02   -0.42095E-07   -0.32779E-04   496   0.108E-01
   2 F= -.58922613E+02 E0= -.58898179E+02  d E =0.437310E+00
 trial-energy change:    0.437310  1 .order    0.328776   -1.476987    2.134538
 step:   0.3671(harm=  0.4090)  dis= 0.05307  next Energy=   -59.625636 (dE=-0.266E+00)
 bond charge predicted
       N       E                     dE             d eps       ncg     rms          rms(c)
DAV:   1    -0.596356507468E+02   -0.71304E+00   -0.70414E+01   400   0.555E+01    0.260E+00
DAV:   2    -0.596843196715E+02   -0.48669E-01   -0.20231E+00   544   0.931E+00    0.151E+00
DAV:   3    -0.596306198030E+02    0.53700E-01   -0.19458E-01   560   0.316E+00    0.542E-01
DAV:   4    -0.596270567939E+02    0.35630E-02   -0.33561E-02   512   0.112E+00    0.220E-01
DAV:   5    -0.596267516132E+02    0.30518E-03   -0.38615E-03   528   0.395E-01    0.984E-02
DAV:   6    -0.596268252949E+02   -0.73682E-04   -0.37110E-04   512   0.121E-01
   3 F= -.59626825E+02 E0= -.59611416E+02  d E =-.266902E+00
 curvature:  -0.20 expect dE=-0.204E+00 dE for cont linesearch -0.175E-03
 trial: gam= 0.70142 g(F)=  0.953E+00 g(S)=  0.472E-01 ort =-0.356E-01 (trialstep = 0.769E+00)
 search vector abs. value=  0.168E+01
 bond charge predicted
       N       E                     dE             d eps       ncg     rms          rms(c)
DAV:   1    -0.596185248635E+02    0.82267E-02   -0.14484E+02   448   0.879E+01    0.263E+00
DAV:   2    -0.598542898684E+02   -0.23577E+00   -0.43432E+00   512   0.129E+01    0.154E+00
DAV:   3    -0.597949640903E+02    0.59326E-01   -0.33228E-01   576   0.343E+00    0.517E-01
DAV:   4    -0.597895203464E+02    0.54437E-02   -0.20350E-02   528   0.945E-01    0.226E-01
DAV:   5    -0.597882272836E+02    0.12931E-02   -0.49087E-03   512   0.388E-01    0.647E-02
DAV:   6    -0.597881852436E+02    0.42040E-04   -0.37709E-04   496   0.121E-01
   4 F= -.59788185E+02 E0= -.59761112E+02  d E =-.161360E+00
 trial-energy change:   -0.161360  1 .order   -0.190473   -0.750276    0.369330
 step:   0.4876(harm=  0.5155)  dis= 0.09129  next Energy=   -59.857216 (dE=-0.230E+00)
 bond charge predicted
       N       E                     dE             d eps       ncg     rms          rms(c)
DAV:   1    -0.598579735704E+02   -0.69746E-01   -0.16230E+01   384   0.243E+01    0.102E+00
DAV:   2    -0.598664592827E+02   -0.84857E-02   -0.37957E-01   528   0.396E+00    0.595E-01
DAV:   3    -0.598590547204E+02    0.74046E-02   -0.34728E-02   544   0.125E+00    0.224E-01
DAV:   4    -0.598585982118E+02    0.45651E-03   -0.27245E-03   496   0.322E-01    0.102E-01
DAV:   5    -0.598585852690E+02    0.12943E-04   -0.44655E-04   496   0.122E-01
   5 F= -.59858585E+02 E0= -.59835596E+02  d E =-.231760E+00
 curvature:  -0.44 expect dE=-0.109E+00 dE for cont linesearch -0.216E-04
 trial: gam= 0.27009 g(F)=  0.166E+00 g(S)=  0.821E-01 ort =-0.909E-02 (trialstep = 0.713E+00)
 search vector abs. value=  0.365E+00
 bond charge predicted
       N       E                     dE             d eps       ncg     rms          rms(c)
DAV:   1    -0.598500431702E+02    0.85550E-02   -0.22598E+01   384   0.312E+01    0.130E+00
DAV:   2    -0.598632224455E+02   -0.13179E-01   -0.60115E-01   544   0.530E+00    0.814E-01
DAV:   3    -0.598493254764E+02    0.13897E-01   -0.82134E-02   544   0.195E+00    0.281E-01
DAV:   4    -0.598482345541E+02    0.10909E-02   -0.11852E-02   512   0.642E-01    0.139E-01
DAV:   5    -0.598481209382E+02    0.11362E-03   -0.14699E-03   496   0.216E-01    0.467E-02
DAV:   6    -0.598481383317E+02   -0.17394E-04   -0.18020E-04   368   0.803E-02
   6 F= -.59848138E+02 E0= -.59819270E+02  d E =0.104469E-01
 trial-energy change:    0.010447  1 .order    0.013288   -0.174980    0.201556
 step:   0.3393(harm=  0.3313)  dis= 0.02606  next Energy=   -59.900537 (dE=-0.420E-01)
 bond charge predicted
       N       E                     dE             d eps       ncg     rms          rms(c)
DAV:   1    -0.599016545357E+02   -0.53534E-01   -0.61815E+00   384   0.164E+01    0.674E-01
DAV:   2    -0.599045481120E+02   -0.28936E-02   -0.16680E-01   544   0.265E+00    0.436E-01
DAV:   3    -0.599011482679E+02    0.33998E-02   -0.17419E-02   464   0.883E-01    0.185E-01
DAV:   4    -0.599008587258E+02    0.28954E-03   -0.27347E-03   464   0.323E-01    0.796E-02
DAV:   5    -0.599008345115E+02    0.24214E-04   -0.35816E-04   432   0.121E-01
   7 F= -.59900835E+02 E0= -.59874962E+02  d E =-.422492E-01
 curvature:  -0.25 expect dE=-0.244E-01 dE for cont linesearch -0.180E-05
 trial: gam= 0.41000 g(F)=  0.906E-01 g(S)=  0.824E-02 ort = 0.164E-02 (trialstep = 0.638E+00)
 search vector abs. value=  0.162E+00
 bond charge predicted
       N       E                     dE             d eps       ncg     rms          rms(c)
DAV:   1    -0.598946513095E+02    0.62074E-02   -0.84428E+00   384   0.192E+01    0.799E-01
DAV:   2    -0.598977996777E+02   -0.31484E-02   -0.23664E-01   496   0.328E+00    0.485E-01
DAV:   3    -0.598936537755E+02    0.41459E-02   -0.25566E-02   512   0.103E+00    0.274E-01
DAV:   4    -0.598934627733E+02    0.19100E-03   -0.28611E-03   496   0.341E-01    0.145E-01
DAV:   5    -0.598934058475E+02    0.56926E-04   -0.51646E-04   480   0.144E-01
   8 F= -.59893406E+02 E0= -.59864664E+02  d E =0.742866E-02
 trial-energy change:    0.007429  1 .order    0.007348   -0.063488    0.078183
 step:   0.2860(harm=  0.2860)  dis= 0.01392  next Energy=   -59.915060 (dE=-0.142E-01)
 bond charge predicted
       N       E                     dE             d eps       ncg     rms          rms(c)
DAV:   1    -0.599152317282E+02   -0.21769E-01   -0.25692E+00   384   0.106E+01    0.427E-01
DAV:   2    -0.599164909529E+02   -0.12592E-02   -0.75307E-02   496   0.183E+00    0.269E-01
DAV:   3    -0.599151732180E+02    0.13177E-02   -0.86727E-03   464   0.587E-01    0.139E-01
DAV:   4    -0.599151200542E+02    0.53164E-04   -0.96324E-04   480   0.211E-01
   9 F= -.59915120E+02 E0= -.59888003E+02  d E =-.142855E-01
 curvature:  -0.23 expect dE=-0.639E-02 dE for cont linesearch -0.133E-05
 trial: gam= 0.31466 g(F)=  0.232E-01 g(S)=  0.428E-02 ort =-0.963E-03 (trialstep = 0.568E+00)
 search vector abs. value=  0.429E-01
 bond charge predicted
       N       E                     dE             d eps       ncg     rms          rms(c)
DAV:   1    -0.599247399834E+02   -0.95668E-02   -0.17706E+00   384   0.835E+00    0.301E-01
DAV:   2    -0.599252205104E+02   -0.48053E-03   -0.39598E-02   480   0.121E+00    0.189E-01
DAV:   3    -0.599246351252E+02    0.58539E-03   -0.25158E-03   464   0.331E-01    0.119E-01
DAV:   4    -0.599244318149E+02    0.20331E-03   -0.63395E-04   512   0.158E-01    0.530E-02
DAV:   5    -0.599244131096E+02    0.18705E-04   -0.83983E-05   336   0.593E-02
  10 F= -.59924413E+02 E0= -.59895925E+02  d E =-.929306E-02
 trial-energy change:   -0.009293  1 .order   -0.009376   -0.015456   -0.003296
 step:   0.7217(harm=  0.7217)  dis= 0.02041  next Energy=   -59.924943 (dE=-0.982E-02)
 bond charge predicted
       N       E                     dE             d eps       ncg     rms          rms(c)
DAV:   1    -0.599248881026E+02   -0.45629E-03   -0.13002E-01   384   0.226E+00    0.799E-02
DAV:   2    -0.599249093577E+02   -0.21255E-04   -0.28953E-03   496   0.326E-01    0.502E-02
DAV:   3    -0.599248676203E+02    0.41737E-04   -0.16230E-04   352   0.878E-02
  11 F= -.59924868E+02 E0= -.59895999E+02  d E =-.974757E-02
 curvature:  -0.57 expect dE=-0.146E-01 dE for cont linesearch -0.259E-06
 trial: gam= 0.93437 g(F)=  0.164E-01 g(S)=  0.923E-02 ort = 0.140E-03 (trialstep = 0.405E+00)
 search vector abs. value=  0.633E-01
 bond charge predicted
       N       E                     dE             d eps       ncg     rms          rms(c)
DAV:   1    -0.599382662724E+02   -0.13357E-01   -0.12730E+00   384   0.682E+00    0.398E-01
DAV:   2    -0.599348307773E+02    0.34355E-02   -0.42118E-02   496   0.111E+00    0.239E-01
DAV:   3    -0.599336302076E+02    0.12006E-02   -0.33613E-03   480   0.364E-01    0.129E-01
DAV:   4    -0.599332660726E+02    0.36414E-03   -0.15847E-03   512   0.282E-01    0.372E-02
DAV:   5    -0.599332611449E+02    0.49277E-05   -0.20029E-04   336   0.103E-01
  12 F= -.59933261E+02 E0= -.59904200E+02  d E =-.839352E-02
 trial-energy change:   -0.008394  1 .order   -0.008572   -0.010441   -0.006704
 step:   1.1328(harm=  1.1328)  dis= 0.03782  next Energy=   -59.939452 (dE=-0.146E-01)
 bond charge predicted
       N       E                     dE             d eps       ncg     rms          rms(c)
DAV:   1    -0.599567972142E+02   -0.23531E-01   -0.40967E+00   384   0.122E+01    0.726E-01
DAV:   2    -0.599457789320E+02    0.11018E-01   -0.14516E-01   496   0.207E+00    0.444E-01
DAV:   3    -0.599412811246E+02    0.44978E-02   -0.11678E-02   464   0.679E-01    0.236E-01
DAV:   4    -0.599400807202E+02    0.12004E-02   -0.55166E-03   512   0.527E-01    0.719E-02
DAV:   5    -0.599400484235E+02    0.32297E-04   -0.90173E-04   528   0.198E-01
  13 F= -.59940048E+02 E0= -.59910515E+02  d E =-.151808E-01
 curvature:  -1.39 expect dE=-0.848E-01 dE for cont linesearch -0.119E-03
 trial: gam= 2.28824 g(F)=  0.536E-01 g(S)=  0.724E-02 ort = 0.233E-02 (trialstep = 0.866E-01)
 search vector abs. value=  0.403E+00
 bond charge predicted
       N       E                     dE             d eps       ncg     rms          rms(c)
DAV:   1    -0.599476050861E+02   -0.75244E-02   -0.34228E-01   384   0.352E+00    0.239E-01
DAV:   2    -0.599460747348E+02    0.15304E-02   -0.12345E-02   464   0.591E-01    0.138E-01
DAV:   3    -0.599456409012E+02    0.43383E-03   -0.10216E-03   448   0.198E-01    0.728E-02
DAV:   4    -0.599455344263E+02    0.10647E-03   -0.52019E-04   472   0.154E-01    0.192E-02
DAV:   5    -0.599455833297E+02   -0.48903E-04   -0.52186E-05   272   0.545E-02
  14 F= -.59945583E+02 E0= -.59915877E+02  d E =-.553491E-02
 ZBRENT: can't locate minimum, use default step
 trial-energy change:   -0.005535  1 .order   -0.005447   -0.005727   -0.005167
 step:   0.3463(harm=  0.8854)  dis= 0.02731  next Energy=   -59.969336 (dE=-0.293E-01)
 bond charge predicted
       N       E                     dE             d eps       ncg     rms          rms(c)
DAV:   1    -0.599774103976E+02   -0.31876E-01   -0.30757E+00   384   0.105E+01    0.731E-01
DAV:   2    -0.599640362437E+02    0.13374E-01   -0.12177E-01   496   0.182E+00    0.429E-01
DAV:   3    -0.599596965039E+02    0.43397E-02   -0.97729E-03   480   0.610E-01    0.226E-01
DAV:   4    -0.599583409343E+02    0.13556E-02   -0.46400E-03   496   0.474E-01    0.597E-02
DAV:   5    -0.599583607432E+02   -0.19809E-04   -0.60582E-04   472   0.169E-01
  15 F= -.59958361E+02 E0= -.59929081E+02  d E =-.183123E-01
 curvature:  -1.47 expect dE=-0.355E-01 dE for cont linesearch -0.571E-02
 ZBRENT: increasing intervall
 opt :   0.8657  next Energy=   -59.968494 (dE=-0.284E-01)
 bond charge predicted
       N       E                     dE             d eps       ncg     rms          rms(c)
DAV:   1    -0.600480475378E+02   -0.89707E-01   -0.12297E+01   384   0.208E+01    0.150E+00
DAV:   2    -0.599943373755E+02    0.53710E-01   -0.56043E-01   496   0.386E+00    0.889E-01
DAV:   3    -0.599744225607E+02    0.19915E-01   -0.40256E-02   480   0.129E+00    0.474E-01
DAV:   4    -0.599685633104E+02    0.58593E-02   -0.20988E-02   512   0.989E-01    0.150E-01
DAV:   5    -0.599683346732E+02    0.22864E-03   -0.41517E-03   464   0.381E-01    0.585E-02
DAV:   6    -0.599683939870E+02   -0.59314E-04   -0.42760E-04   416   0.112E-01
  16 F= -.59968394E+02 E0= -.59939293E+02  d E =-.283456E-01
 curvature:  -2.61 expect dE=-0.213E+00 dE for cont linesearch -0.368E-05
 trial: gam= 1.68733 g(F)=  0.704E-01 g(S)=  0.112E-01 ort = 0.755E-03 (trialstep = 0.793E-01)
 search vector abs. value=  0.123E+01
 bond charge predicted
       N       E                     dE             d eps       ncg     rms          rms(c)
DAV:   1    -0.599806778810E+02   -0.12343E-01   -0.83970E-01   384   0.556E+00    0.412E-01
DAV:   2    -0.599759515981E+02    0.47263E-02   -0.35884E-02   464   0.947E-01    0.235E-01
DAV:   3    -0.599746679728E+02    0.12836E-02   -0.30177E-03   456   0.324E-01    0.123E-01
DAV:   4    -0.599743187449E+02    0.34923E-03   -0.13989E-03   496   0.254E-01    0.327E-02
DAV:   5    -0.599744042063E+02   -0.85461E-04   -0.14009E-04   336   0.876E-02
  17 F= -.59974404E+02 E0= -.59945402E+02  d E =-.601022E-02
 ZBRENT: can't locate minimum, use default step
 trial-energy change:   -0.006010  1 .order   -0.005762   -0.006578   -0.004945
 step:   0.3173(harm=  0.3195)  dis= 0.04099  next Energy=   -59.981642 (dE=-0.132E-01)
 bond charge predicted
       N       E                     dE             d eps       ncg     rms          rms(c)
DAV:   1    -0.600430674654E+02   -0.68749E-01   -0.75277E+00   384   0.165E+01    0.128E+00
DAV:   2    -0.600010353941E+02    0.42032E-01   -0.38879E-01   464   0.298E+00    0.755E-01
DAV:   3    -0.599870486564E+02    0.13987E-01   -0.29776E-02   432   0.104E+00    0.395E-01
DAV:   4    -0.599831156592E+02    0.39330E-02   -0.14874E-02   528   0.823E-01    0.127E-01
DAV:   5    -0.599829272734E+02    0.18839E-03   -0.29384E-03   496   0.324E-01    0.487E-02
DAV:   6    -0.599829826549E+02   -0.55381E-04   -0.33140E-04   416   0.961E-02
  18 F= -.59982983E+02 E0= -.59954172E+02  d E =-.145887E-01
 curvature:  -2.37 expect dE=-0.136E+00 dE for cont linesearch -0.406E-03
 trial: gam= 0.53565 g(F)=  0.467E-01 g(S)=  0.108E-01 ort = 0.145E-01 (trialstep = 0.127E+00)
 search vector abs. value=  0.427E+00
 bond charge predicted
       N       E                     dE             d eps       ncg     rms          rms(c)
DAV:   1    -0.599970613524E+02   -0.14134E-01   -0.69385E-01   384   0.532E+00    0.408E-01
DAV:   2    -0.599919921691E+02    0.50692E-02   -0.30456E-02   480   0.883E-01    0.233E-01
DAV:   3    -0.599906940877E+02    0.12981E-02   -0.31197E-03   448   0.322E-01    0.119E-01
DAV:   4    -0.599903385696E+02    0.35552E-03   -0.12726E-03   512   0.232E-01    0.366E-02
DAV:   5    -0.599904029760E+02   -0.64406E-04   -0.16318E-04   320   0.874E-02
  19 F= -.59990403E+02 E0= -.59961691E+02  d E =-.742032E-02
 ZBRENT: can't locate minimum, use default step
 trial-energy change:   -0.007420  1 .order   -0.007374   -0.008284   -0.006465
 step:   0.5076(harm=  0.5780)  dis= 0.03264  next Energy=   -60.001845 (dE=-0.189E-01)
 bond charge predicted
       N       E                     dE             d eps       ncg     rms          rms(c)
DAV:   1    -0.600640151489E+02   -0.73677E-01   -0.62430E+00   384   0.158E+01    0.126E+00
DAV:   2    -0.600187419831E+02    0.45273E-01   -0.31913E-01   480   0.271E+00    0.735E-01
DAV:   3    -0.600052932416E+02    0.13449E-01   -0.29662E-02   448   0.999E-01    0.379E-01
DAV:   4    -0.600013841024E+02    0.39091E-02   -0.12363E-02   496   0.736E-01    0.119E-01
DAV:   5    -0.600012143774E+02    0.16972E-03   -0.23439E-03   512   0.298E-01    0.475E-02
DAV:   6    -0.600012676456E+02   -0.53268E-04   -0.26351E-04   368   0.942E-02
  20 F= -.60001268E+02 E0= -.59972493E+02  d E =-.182850E-01
 curvature:  -1.84 expect dE=-0.508E-01 dE for cont linesearch -0.498E-03
 trial: gam= 0.50526 g(F)=  0.213E-01 g(S)=  0.623E-02 ort = 0.107E-01 (trialstep = 0.203E+00)
 search vector abs. value=  0.147E+00
 bond charge predicted
       N       E                     dE             d eps       ncg     rms          rms(c)
DAV:   1    -0.600140409624E+02   -0.12827E-01   -0.55999E-01   448   0.492E+00    0.422E-01
DAV:   2    -0.600082869540E+02    0.57540E-02   -0.19905E-02   480   0.757E-01    0.234E-01
DAV:   3    -0.600068732050E+02    0.14137E-02   -0.32309E-03   448   0.328E-01    0.114E-01
DAV:   4    -0.600065449901E+02    0.32821E-03   -0.90169E-04   480   0.178E-01    0.407E-02
DAV:   5    -0.600066296670E+02   -0.84677E-04   -0.14734E-04   352   0.748E-02
  21 F= -.60006630E+02 E0= -.59978338E+02  d E =-.536202E-02
 trial-energy change:   -0.005362  1 .order   -0.005341   -0.006699   -0.003983
 step:   0.5007(harm=  0.5007)  dis= 0.01379  next Energy=   -60.009528 (dE=-0.826E-02)
 bond charge predicted
       N       E                     dE             d eps       ncg     rms          rms(c)
DAV:   1    -0.600255360365E+02   -0.18991E-01   -0.12074E+00   448   0.720E+00    0.623E-01
DAV:   2    -0.600131192839E+02    0.12417E-01   -0.44041E-02   480   0.110E+00    0.345E-01
DAV:   3    -0.600100593647E+02    0.30599E-02   -0.68966E-03   448   0.481E-01    0.168E-01
DAV:   4    -0.600092595060E+02    0.79986E-03   -0.18992E-03   480   0.261E-01    0.597E-02
DAV:   5    -0.600092812340E+02   -0.21728E-04   -0.30721E-04   384   0.109E-01
  22 F= -.60009281E+02 E0= -.59981639E+02  d E =-.801359E-02
 curvature:  -1.12 expect dE=-0.372E-01 dE for cont linesearch -0.597E-05
 trial: gam= 1.41277 g(F)=  0.278E-01 g(S)=  0.540E-02 ort = 0.887E-03 (trialstep = 0.117E+00)
 search vector abs. value=  0.330E+00
 bond charge predicted
       N       E                     dE             d eps       ncg     rms          rms(c)
DAV:   1    -0.600191826690E+02   -0.99232E-02   -0.36200E-01   448   0.395E+00    0.388E-01
DAV:   2    -0.600141062936E+02    0.50764E-02   -0.16568E-02   480   0.629E-01    0.209E-01
DAV:   3    -0.600130600915E+02    0.10462E-02   -0.22125E-03   400   0.277E-01    0.102E-01
DAV:   4    -0.600127695263E+02    0.29057E-03   -0.74585E-04   496   0.165E-01    0.319E-02
DAV:   5    -0.600128320145E+02   -0.62488E-04   -0.10874E-04   304   0.683E-02
  23 F= -.60012832E+02 E0= -.59985556E+02  d E =-.355078E-02
 ZBRENT: can't locate minimum, use default step
 trial-energy change:   -0.003551  1 .order   -0.003631   -0.004046   -0.003215
 step:   0.4692(harm=  0.5716)  dis= 0.01621  next Energy=   -60.019138 (dE=-0.986E-02)
 bond charge predicted
       N       E                     dE             d eps       ncg     rms          rms(c)
DAV:   1    -0.600766656290E+02   -0.63896E-01   -0.32785E+00   448   0.118E+01    0.119E+00
DAV:   2    -0.600316471996E+02    0.45018E-01   -0.17396E-01   464   0.188E+00    0.650E-01
DAV:   3    -0.600215533707E+02    0.10094E-01   -0.20282E-02   416   0.837E-01    0.324E-01
DAV:   4    -0.600184368998E+02    0.31165E-02   -0.70731E-03   496   0.510E-01    0.101E-01
DAV:   5    -0.600183367230E+02    0.10018E-03   -0.12534E-03   496   0.212E-01    0.327E-02
DAV:   6    -0.600184263444E+02   -0.89621E-04   -0.12752E-04   352   0.654E-02
  24 F= -.60018426E+02 E0= -.59992274E+02  d E =-.914511E-02
 curvature:  -2.59 expect dE=-0.112E+00 dE for cont linesearch -0.693E-03
 trial: gam= 0.83013 g(F)=  0.388E-01 g(S)=  0.452E-02 ort = 0.939E-02 (trialstep = 0.188E+00)
 search vector abs. value=  0.286E+00
 bond charge predicted
       N       E                     dE             d eps       ncg     rms          rms(c)
DAV:   1    -0.600392389499E+02   -0.20902E-01   -0.81155E-01   384   0.607E+00    0.570E-01
DAV:   2    -0.600286663521E+02    0.10573E-01   -0.49993E-02   480   0.110E+00    0.307E-01
DAV:   3    -0.600265306824E+02    0.21357E-02   -0.44854E-03   448   0.406E-01    0.156E-01
DAV:   4    -0.600258153885E+02    0.71529E-03   -0.17419E-03   480   0.272E-01    0.413E-02
DAV:   5    -0.600258603688E+02   -0.44980E-04   -0.18606E-04   336   0.977E-02
  25 F= -.60025860E+02 E0= -.60000388E+02  d E =-.743402E-02
 trial-energy change:   -0.007434  1 .order   -0.007535   -0.009603   -0.005467
 step:   0.4358(harm=  0.4358)  dis= 0.01205  next Energy=   -60.029576 (dE=-0.111E-01)
 bond charge predicted
       N       E                     dE             d eps       ncg     rms          rms(c)
DAV:   1    -0.600532944207E+02   -0.27479E-01   -0.14320E+00   384   0.806E+00    0.760E-01
DAV:   2    -0.600344820756E+02    0.18812E-01   -0.90389E-02   480   0.146E+00    0.409E-01
DAV:   3    -0.600306737469E+02    0.38083E-02   -0.80047E-03   448   0.545E-01    0.208E-01
DAV:   4    -0.600293827489E+02    0.12910E-02   -0.29896E-03   480   0.354E-01    0.560E-02
DAV:   5    -0.600293978565E+02   -0.15108E-04   -0.35596E-04   432   0.129E-01
  26 F= -.60029398E+02 E0= -.60004716E+02  d E =-.109715E-01
 curvature:  -1.22 expect dE=-0.367E-01 dE for cont linesearch -0.423E-05
 trial: gam= 0.92913 g(F)=  0.247E-01 g(S)=  0.541E-02 ort = 0.997E-03 (trialstep = 0.237E+00)
 search vector abs. value=  0.279E+00
 bond charge predicted
       N       E                     dE             d eps       ncg     rms          rms(c)
DAV:   1    -0.600544755433E+02   -0.25093E-01   -0.12293E+00   384   0.723E+00    0.681E-01
DAV:   2    -0.600391196342E+02    0.15356E-01   -0.63961E-02   448   0.127E+00    0.367E-01
DAV:   3    -0.600358925597E+02    0.32271E-02   -0.59060E-03   416   0.474E-01    0.187E-01
DAV:   4    -0.600348207830E+02    0.10718E-02   -0.23277E-03   480   0.309E-01    0.503E-02
DAV:   5    -0.600348799877E+02   -0.59205E-04   -0.26113E-04   368   0.113E-01
  27 F= -.60034880E+02 E0= -.60011431E+02  d E =-.548213E-02
 trial-energy change:   -0.005482  1 .order   -0.005751   -0.007358   -0.004144
 step:   0.5432(harm=  0.5432)  dis= 0.01537  next Energy=   -60.037819 (dE=-0.842E-02)
 bond charge predicted
       N       E                     dE             d eps       ncg     rms          rms(c)
DAV:   1    -0.600698580329E+02   -0.35037E-01   -0.20604E+00   384   0.936E+00    0.884E-01
DAV:   2    -0.600440977167E+02    0.25760E-01   -0.10706E-01   464   0.164E+00    0.473E-01
DAV:   3    -0.600387277750E+02    0.53699E-02   -0.96973E-03   416   0.616E-01    0.239E-01
DAV:   4    -0.600369679352E+02    0.17598E-02   -0.36549E-03   496   0.388E-01    0.647E-02
DAV:   5    -0.600370166299E+02   -0.48695E-04   -0.47758E-04   496   0.143E-01
  28 F= -.60037017E+02 E0= -.60015298E+02  d E =-.761877E-02
 curvature:  -2.44 expect dE=-0.661E-01 dE for cont linesearch -0.129E-05
 trial: gam= 0.79078 g(F)=  0.251E-01 g(S)=  0.196E-02 ort =-0.384E-03 (trialstep = 0.298E+00)
 search vector abs. value=  0.201E+00
 bond charge predicted
       N       E                     dE             d eps       ncg     rms          rms(c)
DAV:   1    -0.600590108869E+02   -0.22043E-01   -0.15406E+00   384   0.811E+00    0.669E-01
DAV:   2    -0.600454485356E+02    0.13562E-01   -0.61742E-02   448   0.136E+00    0.365E-01
DAV:   3    -0.600421613839E+02    0.32872E-02   -0.65561E-03   464   0.505E-01    0.174E-01
DAV:   4    -0.600412837352E+02    0.87765E-03   -0.16526E-03   496   0.269E-01    0.474E-02
DAV:   5    -0.600413603178E+02   -0.76583E-04   -0.18661E-04   344   0.932E-02
  29 F= -.60041360E+02 E0= -.60020705E+02  d E =-.434369E-02
 trial-energy change:   -0.004344  1 .order   -0.004525   -0.007980   -0.001070
 step:   0.3447(harm=  0.3447)  dis= 0.00984  next Energy=   -60.041624 (dE=-0.461E-02)
 bond charge predicted
       N       E                     dE             d eps       ncg     rms          rms(c)
DAV:   1    -0.600420105137E+02   -0.72678E-03   -0.37346E-02   416   0.127E+00    0.103E-01
DAV:   2    -0.600416935694E+02    0.31694E-03   -0.14418E-03   448   0.213E-01    0.548E-02
DAV:   3    -0.600416565176E+02    0.37052E-04   -0.16605E-04   336   0.825E-02
  30 F= -.60041657E+02 E0= -.60021148E+02  d E =-.463989E-02
 curvature:  -1.30 expect dE=-0.233E-01 dE for cont linesearch -0.315E-04
 trial: gam= 0.63322 g(F)=  0.135E-01 g(S)=  0.445E-02 ort = 0.221E-02 (trialstep = 0.308E+00)
 search vector abs. value=  0.101E+00
 bond charge predicted
       N       E                     dE             d eps       ncg     rms          rms(c)
DAV:   1    -0.600530120972E+02   -0.11319E-01   -0.88051E-01   384   0.598E+00    0.454E-01
DAV:   2    -0.600472921945E+02    0.57199E-02   -0.27725E-02   464   0.941E-01    0.253E-01
DAV:   3    -0.600456151698E+02    0.16770E-02   -0.37431E-03   464   0.377E-01    0.110E-01
DAV:   4    -0.600452930102E+02    0.32216E-03   -0.61779E-04   480   0.166E-01    0.352E-02
DAV:   5    -0.600453349292E+02   -0.41919E-04   -0.10077E-04   320   0.656E-02
  31 F= -.60045335E+02 E0= -.60024961E+02  d E =-.367841E-02
 trial-energy change:   -0.003678  1 .order   -0.004069   -0.005957   -0.002181
 step:   0.4855(harm=  0.4855)  dis= 0.01230  next Energy=   -60.046356 (dE=-0.470E-02)
 bond charge predicted
       N       E                     dE             d eps       ncg     rms          rms(c)
DAV:   1    -0.600485979860E+02   -0.33050E-02   -0.29652E-01   384   0.348E+00    0.262E-01
DAV:   2    -0.600466189462E+02    0.19790E-02   -0.92414E-03   464   0.548E-01    0.144E-01
DAV:   3    -0.600460599438E+02    0.55900E-03   -0.13417E-03   464   0.222E-01    0.609E-02
DAV:   4    -0.600459822931E+02    0.77651E-04   -0.16615E-04   352   0.914E-02
  32 F= -.60045982E+02 E0= -.60025734E+02  d E =-.432578E-02
 curvature:  -1.27 expect dE=-0.268E-01 dE for cont linesearch -0.113E-05
 trial: gam= 1.13994 g(F)=  0.202E-01 g(S)=  0.935E-03 ort = 0.300E-03 (trialstep = 0.227E+00)
 search vector abs. value=  0.153E+00
 bond charge predicted
       N       E                     dE             d eps       ncg     rms          rms(c)
DAV:   1    -0.600544709145E+02   -0.84110E-02   -0.78656E-01   384   0.547E+00    0.362E-01
DAV:   2    -0.600512970037E+02    0.31739E-02   -0.20833E-02   448   0.845E-01    0.209E-01
DAV:   3    -0.600500928271E+02    0.12042E-02   -0.29053E-03   448   0.341E-01    0.872E-02
DAV:   4    -0.600498988163E+02    0.19401E-03   -0.41222E-04   496   0.138E-01    0.311E-02
DAV:   5    -0.600499312720E+02   -0.32456E-04   -0.81849E-05   288   0.613E-02
  33 F= -.60049931E+02 E0= -.60029663E+02  d E =-.394898E-02
 trial-energy change:   -0.003949  1 .order   -0.004051   -0.004865   -0.003237
 step:   0.6774(harm=  0.6774)  dis= 0.02548  next Energy=   -60.053253 (dE=-0.727E-02)
 bond charge predicted
       N       E                     dE             d eps       ncg     rms          rms(c)
DAV:   1    -0.600709109223E+02   -0.21012E-01   -0.31137E+00   384   0.109E+01    0.727E-01
DAV:   2    -0.600582119144E+02    0.12699E-01   -0.85005E-02   448   0.171E+00    0.422E-01
DAV:   3    -0.600535060964E+02    0.47058E-02   -0.11107E-02   432   0.681E-01    0.183E-01
DAV:   4    -0.600525741159E+02    0.93198E-03   -0.19109E-03   528   0.291E-01    0.633E-02
DAV:   5    -0.600525600090E+02    0.14107E-04   -0.39161E-04   464   0.126E-01
  34 F= -.60052560E+02 E0= -.60032344E+02  d E =-.657772E-02
 curvature:  -2.42 expect dE=-0.533E-01 dE for cont linesearch -0.578E-05
 trial: gam= 1.11856 g(F)=  0.171E-01 g(S)=  0.492E-02 ort = 0.606E-03 (trialstep = 0.226E+00)
 search vector abs. value=  0.215E+00
 bond charge predicted
       N       E                     dE             d eps       ncg     rms          rms(c)
DAV:   1    -0.600615017159E+02   -0.89276E-02   -0.11930E+00   384   0.641E+00    0.393E-01
DAV:   2    -0.600581170952E+02    0.33846E-02   -0.28419E-02   464   0.977E-01    0.228E-01
DAV:   3    -0.600567380998E+02    0.13790E-02   -0.28763E-03   416   0.353E-01    0.993E-02
DAV:   4    -0.600564879213E+02    0.25018E-03   -0.60761E-04   496   0.164E-01    0.300E-02
DAV:   5    -0.600565740149E+02   -0.86094E-04   -0.95663E-05   320   0.666E-02
  35 F= -.60056574E+02 E0= -.60036664E+02  d E =-.401401E-02
 trial-energy change:   -0.004014  1 .order   -0.004184   -0.005123   -0.003244
 step:   0.6154(harm=  0.6154)  dis= 0.03139  next Energy=   -60.059545 (dE=-0.698E-02)
 bond charge predicted
       N       E                     dE             d eps       ncg     rms          rms(c)
DAV:   1    -0.600742822628E+02   -0.17794E-01   -0.35644E+00   384   0.111E+01    0.687E-01
DAV:   2    -0.600640648829E+02    0.10217E-01   -0.87133E-02   480   0.171E+00    0.399E-01
DAV:   3    -0.600600449148E+02    0.40200E-02   -0.82829E-03   432   0.605E-01    0.180E-01
DAV:   4    -0.600591032228E+02    0.94169E-03   -0.19731E-03   496   0.291E-01    0.522E-02
DAV:   5    -0.600591679508E+02   -0.64728E-04   -0.27368E-04   352   0.115E-01
  36 F= -.60059168E+02 E0= -.60039795E+02  d E =-.660794E-02
 curvature:  -2.92 expect dE=-0.148E+00 dE for cont linesearch -0.364E-04
 trial: gam= 2.21462 g(F)=  0.487E-01 g(S)=  0.203E-02 ort = 0.164E-02 (trialstep = 0.587E-01)
 search vector abs. value=  0.111E+01
 bond charge predicted
       N       E                     dE             d eps       ncg     rms          rms(c)
DAV:   1    -0.600639197963E+02   -0.48166E-02   -0.42744E-01   384   0.381E+00    0.226E-01
DAV:   2    -0.600627468137E+02    0.11730E-02   -0.97699E-03   416   0.563E-01    0.129E-01
DAV:   3    -0.600623248262E+02    0.42199E-03   -0.93857E-04   400   0.200E-01    0.560E-02
DAV:   4    -0.600622883757E+02    0.36450E-04   -0.16758E-04   304   0.921E-02
  37 F= -.60062288E+02 E0= -.60043054E+02  d E =-.312042E-02
 ZBRENT: can't locate minimum, use default step
 trial-energy change:   -0.003120  1 .order   -0.003012   -0.003193   -0.002831
 step:   0.2348(harm=  0.5175)  dis= 0.02803  next Energy=   -60.073246 (dE=-0.141E-01)
 bond charge predicted
       N       E                     dE             d eps       ncg     rms          rms(c)
DAV:   1    -0.600846279036E+02   -0.22303E-01   -0.38426E+00   384   0.114E+01    0.689E-01
DAV:   2    -0.600742696867E+02    0.10358E-01   -0.90384E-02   464   0.171E+00    0.394E-01
DAV:   3    -0.600704706388E+02    0.37990E-02   -0.76284E-03   400   0.587E-01    0.180E-01
DAV:   4    -0.600695314447E+02    0.93919E-03   -0.19118E-03   480   0.285E-01    0.494E-02
DAV:   5    -0.600695993718E+02   -0.67927E-04   -0.24746E-04   352   0.112E-01
  38 F= -.60069599E+02 E0= -.60050882E+02  d E =-.104314E-01
 curvature:  -3.29 expect dE=-0.920E-01 dE for cont linesearch -0.429E-02
 ZBRENT: increasing intervall
 opt :   0.5869  next Energy=   -60.079479 (dE=-0.203E-01)
 bond charge predicted
       N       E                     dE             d eps       ncg     rms          rms(c)
DAV:   1    -0.601402819795E+02   -0.70751E-01   -0.15457E+01   384   0.230E+01    0.142E+00
DAV:   2    -0.600973090478E+02    0.42973E-01   -0.39479E-01   448   0.351E+00    0.803E-01
DAV:   3    -0.600823295754E+02    0.14979E-01   -0.30556E-02   424   0.119E+00    0.385E-01
DAV:   4    -0.600779929699E+02    0.43366E-02   -0.84519E-03   480   0.572E-01    0.103E-01
DAV:   5    -0.600780468053E+02   -0.53835E-04   -0.11261E-03   480   0.224E-01    0.334E-02
DAV:   6    -0.600782684462E+02   -0.22164E-03   -0.12463E-04   336   0.684E-02    0.180E-02
DAV:   7    -0.600786308493E+02   -0.36240E-03   -0.13217E-04   304   0.546E-02    0.879E-03
DAV:   8    -0.600788753490E+02   -0.24450E-03   -0.79192E-05   336   0.380E-02    0.599E-03
DAV:   9    -0.600790409395E+02   -0.16559E-03   -0.64241E-05   368   0.313E-02    0.360E-03
DAV:  10    -0.600790917651E+02   -0.50826E-04   -0.15619E-05   360   0.181E-02
  39 F= -.60079092E+02 E0= -.60061396E+02  d E =-.199238E-01
 curvature:  -7.57 expect dE=-0.293E+00 dE for cont linesearch -0.145E-02
 ZBRENT: increasing intervall
 opt :   1.2911  next Energy=   -60.072787 (dE=-0.136E-01)
 bond charge predicted
       N       E                     dE             d eps       ncg     rms          rms(c)
DAV:   1    -0.603099043896E+02   -0.23086E+00   -0.63594E+01   384   0.485E+01    0.298E+00
DAV:   2    -0.601514062912E+02    0.15850E+00   -0.21027E+00   448   0.813E+00    0.167E+00
DAV:   3    -0.600923635806E+02    0.59043E-01   -0.13435E-01   456   0.255E+00    0.843E-01
DAV:   4    -0.600726729074E+02    0.19691E-01   -0.39200E-02   480   0.116E+00    0.227E-01
DAV:   5    -0.600721382577E+02    0.53465E-03   -0.51657E-03   464   0.456E-01    0.731E-02
DAV:   6    -0.600726021103E+02   -0.46385E-03   -0.69733E-04   512   0.161E-01    0.379E-02
DAV:   7    -0.600732155564E+02   -0.61345E-03   -0.29143E-04   368   0.819E-02    0.179E-02
DAV:   8    -0.600736912290E+02   -0.47567E-03   -0.15985E-04   328   0.546E-02    0.118E-02
DAV:   9    -0.600740761398E+02   -0.38491E-03   -0.21653E-04   432   0.549E-02    0.780E-03
DAV:  10    -0.600741986603E+02   -0.12252E-03   -0.40651E-05   368   0.267E-02    0.416E-03
DAV:  11    -0.600742648578E+02   -0.66197E-04   -0.28200E-05   368   0.186E-02
  40 F= -.60074265E+02 E0= -.60058949E+02  d E =-.150969E-01
 curvature:  32.98 expect dE= 0.682E+01 dE for cont linesearch  0.293E-01
 ZBRENT: bracketing found
 ZBRENT: interpolating
 opt :   0.8100  next Energy=   -60.080720 (dE=-0.216E-01)
 bond charge predicted
       N       E                     dE             d eps       ncg     rms          rms(c)
DAV:   1    -0.601813366212E+02   -0.10714E+00   -0.31026E+01   384   0.347E+01    0.194E+00
DAV:   2    -0.601198290150E+02    0.61508E-01   -0.76103E-01   480   0.532E+00    0.107E+00
DAV:   3    -0.600847365677E+02    0.35092E-01   -0.14377E-01   456   0.200E+00    0.355E-01
DAV:   4    -0.600813652952E+02    0.33713E-02   -0.18052E-02   488   0.688E-01    0.167E-01
DAV:   5    -0.600804162367E+02    0.94906E-03   -0.22145E-03   480   0.276E-01    0.625E-02
DAV:   6    -0.600803264575E+02    0.89779E-04   -0.47015E-04   448   0.120E-01
  41 F= -.60080326E+02 E0= -.60063696E+02  d E =-.211585E-01
 curvature:  -1.83 expect dE=-0.130E+00 dE for cont linesearch -0.652E-04
 trial: gam= 1.54810 g(F)=  0.588E-01 g(S)=  0.121E-01 ort =-0.630E-02 (trialstep = 0.855E-01)
 search vector abs. value=  0.272E+01
 bond charge predicted
       N       E                     dE             d eps       ncg     rms          rms(c)
DAV:   1    -0.600929708468E+02   -0.12555E-01   -0.22271E+00   384   0.869E+00    0.511E-01
DAV:   2    -0.600882758669E+02    0.46950E-02   -0.51203E-02   496   0.129E+00    0.291E-01
DAV:   3    -0.600865226225E+02    0.17532E-02   -0.44816E-03   464   0.456E-01    0.122E-01
DAV:   4    -0.600862931433E+02    0.22948E-03   -0.83318E-04   480   0.200E-01    0.343E-02
DAV:   5    -0.600863197924E+02   -0.26649E-04   -0.11901E-04   320   0.790E-02
  42 F= -.60086320E+02 E0= -.60069650E+02  d E =-.599333E-02
 ZBRENT: can't locate minimum, use default step
 trial-energy change:   -0.005993  1 .order   -0.005079   -0.005233   -0.004925
 step:   0.3422(harm=  1.4526)  dis= 0.06353  next Energy=   -60.124759 (dE=-0.444E-01)
 bond charge predicted
       N       E                     dE             d eps       ncg     rms          rms(c)
DAV:   1    -0.601698138025E+02   -0.83521E-01   -0.20122E+01   384   0.262E+01    0.159E+00
DAV:   2    -0.601190869466E+02    0.50727E-01   -0.52045E-01   480   0.404E+00    0.894E-01
DAV:   3    -0.601006790531E+02    0.18408E-01   -0.38716E-02   464   0.137E+00    0.423E-01
DAV:   4    -0.600955855747E+02    0.50935E-02   -0.10695E-02   496   0.667E-01    0.115E-01
DAV:   5    -0.600955531561E+02    0.32419E-04   -0.15362E-03   512   0.268E-01    0.381E-02
DAV:   6    -0.600957482401E+02   -0.19508E-03   -0.15888E-04   352   0.806E-02    0.192E-02
DAV:   7    -0.600960610490E+02   -0.31281E-03   -0.11093E-04   336   0.557E-02    0.918E-03
DAV:   8    -0.600962810001E+02   -0.21995E-03   -0.55643E-05   336   0.361E-02    0.564E-03
DAV:   9    -0.600964507000E+02   -0.16970E-03   -0.56215E-05   352   0.314E-02    0.392E-03
DAV:  10    -0.600965189594E+02   -0.68259E-04   -0.20859E-05   368   0.198E-02
  43 F= -.60096519E+02 E0= -.60080260E+02  d E =-.161925E-01
 curvature: -10.99 expect dE=-0.423E+00 dE for cont linesearch -0.144E-02
 ZBRENT: extrapolating
 opt :   0.4672  next Energy=   -60.097698 (dE=-0.174E-01)
 bond charge predicted
       N       E                     dE             d eps       ncg     rms          rms(c)
DAV:   1    -0.601159484720E+02   -0.19498E-01   -0.48089E+00   384   0.128E+01    0.771E-01
DAV:   2    -0.601033186295E+02    0.12630E-01   -0.11446E-01   456   0.193E+00    0.437E-01
DAV:   3    -0.600985724180E+02    0.47462E-02   -0.10148E-02   488   0.691E-01    0.188E-01
DAV:   4    -0.600975314909E+02    0.10409E-02   -0.19983E-03   488   0.305E-01    0.529E-02
DAV:   5    -0.600975218774E+02    0.96135E-05   -0.26425E-04   360   0.118E-01
  44 F= -.60097522E+02 E0= -.60081510E+02  d E =-.171954E-01
 curvature:  -9.02 expect dE=-0.549E+00 dE for cont linesearch -0.176E-05
 trial: gam= 0.82474 g(F)=  0.520E-01 g(S)=  0.888E-02 ort = 0.730E-03 (trialstep = 0.162E+00)
 search vector abs. value=  0.191E+01
 bond charge predicted
       N       E                     dE             d eps       ncg     rms          rms(c)
DAV:   1    -0.601279440870E+02   -0.30413E-01   -0.54098E+00   384   0.135E+01    0.844E-01
DAV:   2    -0.601127971729E+02    0.15147E-01   -0.12578E-01   400   0.206E+00    0.482E-01
DAV:   3    -0.601063423166E+02    0.64549E-02   -0.14916E-02   456   0.812E-01    0.189E-01
DAV:   4    -0.601053820047E+02    0.96031E-03   -0.19750E-03   512   0.302E-01    0.638E-02
DAV:   5    -0.601054323266E+02   -0.50322E-04   -0.42282E-04   416   0.131E-01
  45 F= -.60105432E+02 E0= -.60089734E+02  d E =-.791045E-02
 trial-energy change:   -0.007910  1 .order   -0.008406   -0.009944   -0.006868
 step:   0.5232(harm=  0.5232)  dis= 0.07788  next Energy=   -60.113595 (dE=-0.161E-01)
 bond charge predicted
       N       E                     dE             d eps       ncg     rms          rms(c)
DAV:   1    -0.602268007298E+02   -0.12142E+00   -0.27216E+01   384   0.305E+01    0.196E+00
DAV:   2    -0.601481916961E+02    0.78609E-01   -0.71393E-01   416   0.485E+00    0.111E+00
DAV:   3    -0.601176235234E+02    0.30568E-01   -0.67523E-02   464   0.177E+00    0.487E-01
DAV:   4    -0.601110261652E+02    0.65974E-02   -0.13209E-02   512   0.737E-01    0.153E-01
DAV:   5    -0.601108612347E+02    0.16493E-03   -0.26675E-03   488   0.329E-01    0.464E-02
DAV:   6    -0.601111102281E+02   -0.24899E-03   -0.27506E-04   344   0.105E-01    0.257E-02
DAV:   7    -0.601115997740E+02   -0.48955E-03   -0.28001E-04   368   0.808E-02    0.150E-02
DAV:   8    -0.601118759074E+02   -0.27613E-03   -0.88538E-05   376   0.484E-02    0.843E-03
DAV:   9    -0.601121213750E+02   -0.24547E-03   -0.11971E-04   360   0.437E-02    0.677E-03
DAV:  10    -0.601122077395E+02   -0.86365E-04   -0.35989E-05   376   0.252E-02
  46 F= -.60112208E+02 E0= -.60097292E+02  d E =-.146859E-01
 curvature:  -8.15 expect dE=-0.676E+00 dE for cont linesearch -0.242E-03
 trial: gam= 1.45853 g(F)=  0.787E-01 g(S)=  0.426E-02 ort =-0.754E-02 (trialstep = 0.108E+00)
 search vector abs. value=  0.413E+01
 bond charge predicted
       N       E                     dE             d eps       ncg     rms          rms(c)
DAV:   1    -0.601439119286E+02   -0.31791E-01   -0.51367E+00   384   0.131E+01    0.869E-01
DAV:   2    -0.601266873298E+02    0.17225E-01   -0.12105E-01   440   0.202E+00    0.493E-01
DAV:   3    -0.601199018353E+02    0.67855E-02   -0.16729E-02   464   0.830E-01    0.188E-01
DAV:   4    -0.601189213236E+02    0.98051E-03   -0.17263E-03   576   0.281E-01    0.661E-02
DAV:   5    -0.601188541204E+02    0.67203E-04   -0.33903E-04   448   0.115E-01
  47 F= -.60118854E+02 E0= -.60104251E+02  d E =-.664638E-02
 ZBRENT: can't locate minimum, use default step
 trial-energy change:   -0.006646  1 .order   -0.007104   -0.007805   -0.006404
 step:   0.4338(harm=  0.6042)  dis= 0.09082  next Energy=   -60.133951 (dE=-0.217E-01)
 bond charge predicted
       N       E                     dE             d eps       ncg     rms          rms(c)
DAV:   1    -0.603599401025E+02   -0.24102E+00   -0.47091E+01   384   0.406E+01    0.275E+00
DAV:   2    -0.602001610339E+02    0.15978E+00   -0.14051E+00   432   0.669E+00    0.153E+00
DAV:   3    -0.601433264395E+02    0.56835E-01   -0.13146E-01   456   0.241E+00    0.697E-01
DAV:   4    -0.601301386166E+02    0.13188E-01   -0.23954E-02   496   0.948E-01    0.221E-01
DAV:   5    -0.601294507452E+02    0.68787E-03   -0.38635E-03   456   0.405E-01    0.604E-02
DAV:   6    -0.601298816800E+02   -0.43093E-03   -0.41255E-04   424   0.134E-01    0.338E-02
DAV:   7    -0.601305696639E+02   -0.68798E-03   -0.36168E-04   384   0.952E-02    0.169E-02
DAV:   8    -0.601309583935E+02   -0.38873E-03   -0.13368E-04   384   0.582E-02    0.107E-02
DAV:   9    -0.601312692781E+02   -0.31088E-03   -0.18597E-04   400   0.549E-02    0.811E-03
DAV:  10    -0.601313601527E+02   -0.90875E-04   -0.36427E-05   384   0.283E-02
  48 F= -.60131360E+02 E0= -.60117971E+02  d E =-.191524E-01
 curvature: -15.29 expect dE=-0.125E+01 dE for cont linesearch -0.395E-03
 trial: gam= 0.54739 g(F)=  0.719E-01 g(S)=  0.991E-02 ort = 0.103E-01 (trialstep = 0.174E+00)
 search vector abs. value=  0.133E+01
 bond charge predicted
       N       E                     dE             d eps       ncg     rms          rms(c)
DAV:   1    -0.601672219261E+02   -0.35953E-01   -0.40773E+00   384   0.121E+01    0.840E-01
DAV:   2    -0.601493336515E+02    0.17888E-01   -0.10949E-01   480   0.190E+00    0.467E-01
DAV:   3    -0.601436235893E+02    0.57101E-02   -0.13642E-02   480   0.756E-01    0.186E-01
DAV:   4    -0.601426172396E+02    0.10063E-02   -0.16817E-03   576   0.283E-01    0.598E-02
DAV:   5    -0.601425494112E+02    0.67828E-04   -0.22305E-04   368   0.101E-01
  49 F= -.60142549E+02 E0= -.60129615E+02  d E =-.111893E-01
 trial-energy change:   -0.011189  1 .order   -0.011372   -0.015178   -0.007566
 step:   0.3459(harm=  0.3459)  dis= 0.03605  next Energy=   -60.146492 (dE=-0.151E-01)
 bond charge predicted
       N       E                     dE             d eps       ncg     rms          rms(c)
DAV:   1    -0.601718179091E+02   -0.29201E-01   -0.40556E+00   384   0.120E+01    0.842E-01
DAV:   2    -0.601532993891E+02    0.18519E-01   -0.10952E-01   480   0.190E+00    0.468E-01
DAV:   3    -0.601473700799E+02    0.59293E-02   -0.14102E-02   480   0.765E-01    0.184E-01
DAV:   4    -0.601464322551E+02    0.93782E-03   -0.16599E-03   544   0.284E-01    0.609E-02
DAV:   5    -0.601464416613E+02   -0.94062E-05   -0.24519E-04   368   0.104E-01
  50 F= -.60146442E+02 E0= -.60133947E+02  d E =-.150815E-01
 curvature:  -2.63 expect dE=-0.135E+00 dE for cont linesearch -0.710E-05
 trial: gam= 0.74033 g(F)=  0.423E-01 g(S)=  0.891E-02 ort = 0.189E-02 (trialstep = 0.208E+00)
 search vector abs. value=  0.784E+00
 bond charge predicted
       N       E                     dE             d eps       ncg     rms          rms(c)
DAV:   1    -0.601827215084E+02   -0.36289E-01   -0.32274E+00   384   0.108E+01    0.830E-01
DAV:   2    -0.601628862329E+02    0.19835E-01   -0.92958E-02   416   0.174E+00    0.451E-01
DAV:   3    -0.601572183487E+02    0.56679E-02   -0.14855E-02   464   0.754E-01    0.168E-01
DAV:   4    -0.601565032257E+02    0.71512E-03   -0.13230E-03   480   0.261E-01    0.591E-02
DAV:   5    -0.601565345544E+02   -0.31329E-04   -0.23857E-04   368   0.998E-02
  51 F= -.60156535E+02 E0= -.60145326E+02  d E =-.100929E-01
 ZBRENT: can't locate minimum, use default step
 trial-energy change:   -0.010093  1 .order   -0.010091   -0.010939   -0.009242
 step:   0.8320(harm=  1.3410)  dis= 0.05617  next Energy=   -60.181704 (dE=-0.353E-01)
 bond charge predicted
       N       E                     dE             d eps       ncg     rms          rms(c)
DAV:   1    -0.604217253297E+02   -0.26522E+00   -0.29421E+01   384   0.327E+01    0.259E+00
DAV:   2    -0.602331950654E+02    0.18853E+00   -0.98171E-01   416   0.554E+00    0.140E+00
DAV:   3    -0.601859727639E+02    0.47222E-01   -0.11293E-01   448   0.221E+00    0.593E-01
DAV:   4    -0.601768401710E+02    0.91326E-02   -0.15758E-02   512   0.829E-01    0.188E-01
DAV:   5    -0.601762703300E+02    0.56984E-03   -0.26859E-03   504   0.336E-01    0.529E-02
DAV:   6    -0.601767071368E+02   -0.43681E-03   -0.36481E-04   400   0.127E-01    0.279E-02
DAV:   7    -0.601772454094E+02   -0.53827E-03   -0.25338E-04   424   0.778E-02    0.165E-02
DAV:   8    -0.601776694094E+02   -0.42400E-03   -0.13947E-04   376   0.557E-02    0.984E-03
DAV:   9    -0.601779952741E+02   -0.32586E-03   -0.18567E-04   400   0.518E-02    0.762E-03
DAV:  10    -0.601781032380E+02   -0.10796E-03   -0.40829E-05   376   0.305E-02    0.391E-03
DAV:  11    -0.601781475828E+02   -0.44345E-04   -0.20732E-05   368   0.184E-02
  52 F= -.60178148E+02 E0= -.60170705E+02  d E =-.317059E-01
 curvature:  -7.97 expect dE=-0.407E+00 dE for cont linesearch -0.402E-02
 ZBRENT: increasing intervall
 opt :   2.0799  next Energy=   -60.172321 (dE=-0.259E-01)
 bond charge predicted
       N       E                     dE             d eps       ncg     rms          rms(c)
DAV:   1    -0.611767849622E+02   -0.99868E+00   -0.12501E+02   384   0.705E+01    0.559E+00
DAV:   2    -0.603932347237E+02    0.78355E+00   -0.54597E+00   456   0.127E+01    0.292E+00
DAV:   3    -0.602099913328E+02    0.18324E+00   -0.51333E-01   480   0.462E+00    0.127E+00
DAV:   4    -0.601720749973E+02    0.37916E-01   -0.66782E-02   488   0.162E+00    0.406E-01
DAV:   5    -0.601691245272E+02    0.29505E-02   -0.10683E-02   480   0.603E-01    0.110E-01
DAV:   6    -0.601702268216E+02   -0.11023E-02   -0.16020E-03   472   0.241E-01    0.575E-02
DAV:   7    -0.601712954042E+02   -0.10686E-02   -0.55459E-04   400   0.115E-01    0.319E-02
DAV:   8    -0.601722929016E+02   -0.99750E-03   -0.50995E-04   432   0.995E-02    0.203E-02
DAV:   9    -0.601729773749E+02   -0.68447E-03   -0.44778E-04   416   0.809E-02    0.135E-02
DAV:  10    -0.601732168195E+02   -0.23944E-03   -0.10959E-04   376   0.419E-02    0.707E-03
DAV:  11    -0.601733039333E+02   -0.87114E-04   -0.53109E-05   360   0.262E-02
  53 F= -.60173304E+02 E0= -.60171383E+02  d E =-.268623E-01
 curvature:  11.55 expect dE= 0.312E+01 dE for cont linesearch  0.158E-01
 ZBRENT: bracketing found
 ZBRENT: interpolating
 opt :   1.3033  next Energy=   -60.182833 (dE=-0.364E-01)
 bond charge predicted
       N       E                     dE             d eps       ncg     rms          rms(c)
DAV:   1    -0.605634445174E+02   -0.39023E+00   -0.51341E+01   400   0.477E+01    0.333E+00
DAV:   2    -0.603058714065E+02    0.25757E+00   -0.14493E+00   392   0.798E+00    0.178E+00
DAV:   3    -0.601924384464E+02    0.11343E+00   -0.54208E-01   496   0.370E+00    0.513E-01
DAV:   4    -0.601860473704E+02    0.63911E-02   -0.31711E-02   472   0.104E+00    0.277E-01
DAV:   5    -0.601834105956E+02    0.26368E-02   -0.79887E-03   568   0.493E-01    0.866E-02
DAV:   6    -0.601831315730E+02    0.27902E-03   -0.79892E-04   568   0.184E-01    0.441E-02
DAV:   7    -0.601830945983E+02    0.36975E-04   -0.27441E-04   408   0.914E-02
  54 F= -.60183095E+02 E0= -.60178682E+02  d E =-.366529E-01
 curvature:  -3.42 expect dE=-0.339E+00 dE for cont linesearch -0.139E-03
 trial: gam= 1.80993 g(F)=  0.767E-01 g(S)=  0.223E-01 ort =-0.565E-02 (trialstep = 0.126E+00)
 search vector abs. value=  0.265E+01
 bond charge predicted
       N       E                     dE             d eps       ncg     rms          rms(c)
DAV:   1    -0.602252521143E+02   -0.42121E-01   -0.40868E+00   424   0.122E+01    0.941E-01
DAV:   2    -0.602027279482E+02    0.22524E-01   -0.10624E-01   488   0.194E+00    0.508E-01
DAV:   3    -0.601952998397E+02    0.74281E-02   -0.30300E-02   496   0.102E+00    0.145E-01
DAV:   4    -0.601949607784E+02    0.33906E-03   -0.17734E-03   512   0.273E-01    0.663E-02
DAV:   5    -0.601949150945E+02    0.45684E-04   -0.25241E-04   360   0.107E-01
  55 F= -.60194915E+02 E0= -.60191077E+02  d E =-.118205E-01
 ZBRENT: can't locate minimum, use default step
 trial-energy change:   -0.011820  1 .order   -0.010063   -0.011226   -0.008901
 step:   0.5060(harm=  0.6107)  dis= 0.06048  next Energy=   -60.210194 (dE=-0.271E-01)
 bond charge predicted
       N       E                     dE             d eps       ncg     rms          rms(c)
DAV:   1    -0.605104887287E+02   -0.31553E+00   -0.37321E+01   400   0.369E+01    0.293E+00
DAV:   2    -0.602819716817E+02    0.22852E+00   -0.11020E+00   432   0.633E+00    0.157E+00
DAV:   3    -0.602124528232E+02    0.69519E-01   -0.23366E-01   512   0.301E+00    0.503E-01
DAV:   4    -0.602076706741E+02    0.47821E-02   -0.12705E-02   496   0.740E-01    0.212E-01
DAV:   5    -0.602073337618E+02    0.33691E-03   -0.27949E-03   488   0.314E-01    0.557E-02
DAV:   6    -0.602079892038E+02   -0.65544E-03   -0.40522E-04   384   0.146E-01    0.279E-02
DAV:   7    -0.602086472883E+02   -0.65808E-03   -0.31096E-04   400   0.915E-02    0.183E-02
DAV:   8    -0.602090668429E+02   -0.41955E-03   -0.14774E-04   352   0.710E-02    0.918E-03
DAV:   9    -0.602093693382E+02   -0.30250E-03   -0.15975E-04   416   0.534E-02    0.812E-03
DAV:  10    -0.602094748147E+02   -0.10548E-03   -0.42160E-05   376   0.334E-02    0.465E-03
DAV:  11    -0.602095260228E+02   -0.51208E-04   -0.27119E-05   360   0.211E-02
  56 F= -.60209526E+02 E0= -.60207734E+02  d E =-.264314E-01
 curvature:  -8.68 expect dE=-0.137E+01 dE for cont linesearch -0.311E-04
 trial: gam= 1.58455 g(F)=  0.130E+00 g(S)=  0.276E-01 ort =-0.308E-02 (trialstep = 0.789E-01)
 search vector abs. value=  0.679E+01
 bond charge predicted
       N       E                     dE             d eps       ncg     rms          rms(c)
DAV:   1    -0.602511150470E+02   -0.41640E-01   -0.40571E+00   384   0.122E+01    0.937E-01
DAV:   2    -0.602294403908E+02    0.21675E-01   -0.98990E-02   400   0.190E+00    0.508E-01
DAV:   3    -0.602209082770E+02    0.85321E-02   -0.36481E-02   464   0.109E+00    0.136E-01
DAV:   4    -0.602205900381E+02    0.31824E-03   -0.23484E-03   488   0.307E-01    0.691E-02
DAV:   5    -0.602205271676E+02    0.62870E-04   -0.35789E-04   424   0.122E-01
  57 F= -.60220527E+02 E0= -.60219073E+02  d E =-.110011E-01
 ZBRENT: can't locate minimum, use default step
 trial-energy change:   -0.011001  1 .order   -0.011286   -0.012034   -0.010539
 step:   0.3154(harm=  0.6349)  dis= 0.06055  next Energy=   -60.257971 (dE=-0.484E-01)
 bond charge predicted
       N       E                     dE             d eps       ncg     rms          rms(c)
DAV:   1    -0.605366905456E+02   -0.31610E+00   -0.37029E+01   384   0.365E+01    0.292E+00
DAV:   2    -0.603202507074E+02    0.21644E+00   -0.10269E+00   432   0.621E+00    0.157E+00
DAV:   3    -0.602483719709E+02    0.71879E-01   -0.26375E-01   480   0.318E+00    0.448E-01
DAV:   4    -0.602448481130E+02    0.35239E-02   -0.13197E-02   488   0.765E-01    0.210E-01
DAV:   5    -0.602445096002E+02    0.33851E-03   -0.31969E-03   456   0.331E-01    0.576E-02
DAV:   6    -0.602450922698E+02   -0.58267E-03   -0.48372E-04   448   0.162E-01    0.284E-02
DAV:   7    -0.602456900027E+02   -0.59773E-03   -0.29308E-04   384   0.869E-02    0.193E-02
DAV:   8    -0.602461054201E+02   -0.41542E-03   -0.17627E-04   336   0.711E-02    0.971E-03
DAV:   9    -0.602463506763E+02   -0.24526E-03   -0.17052E-04   352   0.513E-02    0.854E-03
DAV:  10    -0.602464236748E+02   -0.72998E-04   -0.49708E-05   360   0.339E-02
  58 F= -.60246424E+02 E0= -.60245596E+02  d E =-.368977E-01
 curvature:  -9.46 expect dE=-0.754E+00 dE for cont linesearch -0.900E-02
 ZBRENT: increasing intervall
 opt :   0.7885  next Energy=   -60.259243 (dE=-0.497E-01)
 bond charge predicted
       N       E                     dE             d eps       ncg     rms          rms(c)
DAV:   1    -0.614732021354E+02   -0.12269E+01   -0.15934E+02   384   0.801E+01    0.638E+00
DAV:   2    -0.605516491476E+02    0.92155E+00   -0.62475E+00   408   0.151E+01    0.333E+00
DAV:   3    -0.602872826273E+02    0.26437E+00   -0.87963E-01   496   0.596E+00    0.121E+00
DAV:   4    -0.602581872571E+02    0.29095E-01   -0.58004E-02   528   0.156E+00    0.468E-01
DAV:   5    -0.602546295038E+02    0.35578E-02   -0.10770E-02   424   0.606E-01    0.122E-01
DAV:   6    -0.602557698438E+02   -0.11403E-02   -0.16526E-03   456   0.279E-01    0.571E-02
DAV:   7    -0.602568111283E+02   -0.10413E-02   -0.78490E-04   392   0.145E-01    0.359E-02
DAV:   8    -0.602574885995E+02   -0.67747E-03   -0.44633E-04   384   0.112E-01    0.212E-02
DAV:   9    -0.602579113552E+02   -0.42276E-03   -0.46231E-04   408   0.859E-02    0.164E-02
DAV:  10    -0.602580434113E+02   -0.13206E-03   -0.12852E-04   352   0.529E-02    0.884E-03
DAV:  11    -0.602580910245E+02   -0.47613E-04   -0.48825E-05   352   0.285E-02
  59 F= -.60258091E+02 E0= -.60257926E+02  d E =-.485650E-01
 curvature: -13.47 expect dE=-0.319E+01 dE for cont linesearch -0.112E-02
 trial: gam= 1.67666 g(F)=  0.197E+00 g(S)=  0.399E-01 ort =-0.237E-01 (trialstep = 0.779E-01)
 search vector abs. value=  0.192E+02
 bond charge predicted
       N       E                     dE             d eps       ncg     rms          rms(c)
DAV:   1    -0.603563533467E+02   -0.98310E-01   -0.11650E+01   400   0.203E+01    0.156E+00
DAV:   2    -0.602971594675E+02    0.59194E-01   -0.27144E-01   392   0.324E+00    0.848E-01
DAV:   3    -0.602727005733E+02    0.24459E-01   -0.10532E-01   496   0.189E+00    0.228E-01
DAV:   4    -0.602720986475E+02    0.60193E-03   -0.64447E-03   464   0.523E-01    0.118E-01
DAV:   5    -0.602720028632E+02    0.95784E-04   -0.10473E-03   464   0.202E-01    0.331E-02
DAV:   6    -0.602722121310E+02   -0.20927E-03   -0.13653E-04   328   0.898E-02    0.162E-02
DAV:   7    -0.602724664186E+02   -0.25429E-03   -0.12186E-04   312   0.608E-02    0.119E-02
DAV:   8    -0.602726666062E+02   -0.20019E-03   -0.76863E-05   320   0.566E-02    0.614E-03
DAV:   9    -0.602727899082E+02   -0.12330E-03   -0.55738E-05   336   0.319E-02    0.534E-03
DAV:  10    -0.602728432620E+02   -0.53354E-04   -0.23490E-05   368   0.238E-02
  60 F= -.60272843E+02 E0= -.60272726E+02  d E =-.147522E-01
 ZBRENT: can't locate minimum, use default step
 trial-energy change:   -0.014752  1 .order   -0.014700   -0.015339   -0.014062
 step:   0.3116(harm=  0.9352)  dis= 0.10571  next Energy=   -60.350166 (dE=-0.921E-01)
 bond charge predicted
       N       E                     dE             d eps       ncg     rms          rms(c)
DAV:   1    -0.610686341992E+02   -0.79584E+00   -0.11001E+02   384   0.649E+01    0.501E+00
DAV:   2    -0.605091855383E+02    0.55945E+00   -0.35916E+00   408   0.117E+01    0.263E+00
DAV:   3    -0.603171274100E+02    0.19206E+00   -0.72548E-01   496   0.519E+00    0.814E-01
DAV:   4    -0.603070575212E+02    0.10070E-01   -0.38683E-02   480   0.132E+00    0.375E-01
DAV:   5    -0.603054692655E+02    0.15883E-02   -0.82682E-03   448   0.529E-01    0.102E-01
DAV:   6    -0.603062537133E+02   -0.78445E-03   -0.13116E-03   536   0.253E-01    0.487E-02
DAV:   7    -0.603070158425E+02   -0.76213E-03   -0.59146E-04   376   0.130E-01    0.339E-02
DAV:   8    -0.603075469529E+02   -0.53111E-03   -0.42935E-04   408   0.112E-01    0.190E-02
DAV:   9    -0.603078162808E+02   -0.26933E-03   -0.31055E-04   360   0.760E-02    0.157E-02
DAV:  10    -0.603079324989E+02   -0.11622E-03   -0.10494E-04   368   0.466E-02    0.867E-03
DAV:  11    -0.603080000380E+02   -0.67539E-04   -0.32371E-05   360   0.286E-02
  61 F= -.60308000E+02 E0= -.60307960E+02  d E =-.499090E-01
 curvature: -21.52 expect dE=-0.432E+01 dE for cont linesearch -0.187E-01
 ZBRENT: increasing intervall
 opt :   0.7790  next Energy=   -60.344629 (dE=-0.865E-01)
 bond charge predicted
       N       E                     dE             d eps       ncg     rms          rms(c)
DAV:   1    -0.636272311451E+02   -0.33193E+01   -0.56331E+02   448   0.177E+02    0.114E+01
DAV:   2    -0.611669916043E+02    0.24602E+01   -0.21150E+01   384   0.295E+01    0.594E+00
DAV:   3    -0.604455670676E+02    0.72142E+00   -0.26474E+00   504   0.105E+01    0.244E+00
DAV:   4    -0.603528695817E+02    0.92697E-01   -0.20823E-01   520   0.310E+00    0.930E-01
DAV:   5    -0.603405617785E+02    0.12308E-01   -0.29879E-02   488   0.106E+00    0.249E-01
DAV:   6    -0.603410615080E+02   -0.49973E-03   -0.49227E-03   536   0.460E-01    0.111E-01
DAV:   7    -0.603417032577E+02   -0.64175E-03   -0.19668E-03   472   0.240E-01    0.763E-02
DAV:   8    -0.603420137983E+02   -0.31054E-03   -0.17288E-03   448   0.218E-01    0.477E-02
DAV:   9    -0.603421330588E+02   -0.11926E-03   -0.11992E-03   360   0.146E-01    0.350E-02
DAV:  10    -0.603424555631E+02   -0.32250E-03   -0.40508E-04   408   0.100E-01    0.182E-02
DAV:  11    -0.603426982356E+02   -0.24267E-03   -0.92331E-05   352   0.559E-02    0.900E-03
DAV:  12    -0.603429291765E+02   -0.23094E-03   -0.89569E-05   360   0.383E-02    0.574E-03
DAV:  13    -0.603430445341E+02   -0.11536E-03   -0.37001E-05   368   0.238E-02    0.325E-03
DAV:  14    -0.603431240220E+02   -0.79488E-04   -0.28606E-05   360   0.150E-02
  62 F= -.60343124E+02 E0= -.60343118E+02  d E =-.850330E-01
 curvature: -42.07 expect dE=-0.240E+02 dE for cont linesearch -0.257E-02
 trial: gam= 2.29005 g(F)=  0.498E+00 g(S)=  0.736E-01 ort = 0.343E-01 (trialstep = 0.413E-01)
 search vector abs. value=  0.102E+03
 bond charge predicted
       N       E                     dE             d eps       ncg     rms          rms(c)
DAV:   1    -0.604940940744E+02   -0.15105E+00   -0.17523E+01   432   0.249E+01    0.192E+00
DAV:   2    -0.604047817850E+02    0.89312E-01   -0.41982E-01   448   0.408E+00    0.104E+00
DAV:   3    -0.603679129776E+02    0.36869E-01   -0.14776E-01   512   0.229E+00    0.283E-01
DAV:   4    -0.603671491977E+02    0.76378E-03   -0.81986E-03   488   0.604E-01    0.146E-01
DAV:   5    -0.603670039628E+02    0.14523E-03   -0.14709E-03   520   0.226E-01    0.434E-02
DAV:   6    -0.603673194706E+02   -0.31551E-03   -0.25512E-04   368   0.110E-01    0.212E-02
DAV:   7    -0.603676710358E+02   -0.35157E-03   -0.14391E-04   312   0.684E-02    0.177E-02
DAV:   8    -0.603680929633E+02   -0.42193E-03   -0.15440E-04   360   0.691E-02    0.961E-03
DAV:   9    -0.603683597916E+02   -0.26683E-03   -0.98664E-05   376   0.443E-02    0.711E-03
DAV:  10    -0.603685402286E+02   -0.18044E-03   -0.60008E-05   384   0.324E-02    0.440E-03
DAV:  11    -0.603686247627E+02   -0.84534E-04   -0.22074E-05   384   0.196E-02
  63 F= -.60368625E+02 E0= -.60368618E+02  d E =-.255007E-01
 ZBRENT: can't locate minimum, use default step
 trial-energy change:   -0.025501  1 .order   -0.025609   -0.026837   -0.024380
 step:   0.1652(harm=  0.4510)  dis= 0.13124  next Energy=   -60.489691 (dE=-0.147E+00)
 bond charge predicted
       N       E                     dE             d eps       ncg     rms          rms(c)
DAV:   1    -0.615339327774E+02   -0.11654E+01   -0.17093E+02   400   0.841E+01    0.625E+00
DAV:   2    -0.607435616731E+02    0.79037E+00   -0.55560E+00   400   0.145E+01    0.322E+00
DAV:   3    -0.604452050348E+02    0.29836E+00   -0.12527E+00   496   0.660E+00    0.981E-01
DAV:   4    -0.604335716765E+02    0.11633E-01   -0.74233E-02   512   0.182E+00    0.468E-01
DAV:   5    -0.604304791842E+02    0.30925E-02   -0.11819E-02   504   0.643E-01    0.141E-01
DAV:   6    -0.604311668436E+02   -0.68766E-03   -0.18656E-03   536   0.288E-01    0.675E-02
DAV:   7    -0.604320693807E+02   -0.90254E-03   -0.13436E-03   424   0.189E-01    0.552E-02
DAV:   8    -0.604328342732E+02   -0.76489E-03   -0.67067E-04   408   0.151E-01    0.305E-02
DAV:   9    -0.604336118064E+02   -0.77753E-03   -0.49750E-04   392   0.101E-01    0.209E-02
DAV:  10    -0.604341116195E+02   -0.49981E-03   -0.20039E-04   384   0.675E-02    0.110E-02
DAV:  11    -0.604343462210E+02   -0.23460E-03   -0.73096E-05   384   0.388E-02    0.511E-03
DAV:  12    -0.604346158772E+02   -0.26966E-03   -0.13661E-04   384   0.282E-02    0.295E-03
DAV:  13    -0.604346610715E+02   -0.45194E-04   -0.17175E-05   384   0.149E-02
  64 F= -.60434661E+02 E0= -.60434651E+02  d E =-.915370E-01
 curvature: -18.11 expect dE=-0.654E+01 dE for cont linesearch -0.338E-01
 ZBRENT: increasing intervall
 opt :   0.4129  next Energy=   -60.504199 (dE=-0.161E+00)
 bond charge predicted
       N       E                     dE             d eps       ncg     rms          rms(c)
DAV:   1    -0.649498399834E+02   -0.45152E+01   -0.10009E+03   448   0.254E+02    0.145E+01
DAV:   2    -0.616604210563E+02    0.32894E+01   -0.36892E+01   384   0.360E+01    0.742E+00
DAV:   3    -0.606431388289E+02    0.10173E+01   -0.43861E+00   488   0.131E+01    0.310E+00
DAV:   4    -0.605278190347E+02    0.11532E+00   -0.37161E-01   512   0.432E+00    0.120E+00
DAV:   5    -0.605126826799E+02    0.15136E-01   -0.49364E-02   472   0.137E+00    0.345E-01
DAV:   6    -0.605137376617E+02   -0.10550E-02   -0.79756E-03   496   0.546E-01    0.157E-01
DAV:   7    -0.605169741421E+02   -0.32365E-02   -0.37489E-03   448   0.366E-01    0.961E-02
DAV:   8    -0.605195635245E+02   -0.25894E-02   -0.15581E-03   464   0.226E-01    0.558E-02
DAV:   9    -0.605222138707E+02   -0.26503E-02   -0.15678E-03   400   0.178E-01    0.316E-02
DAV:  10    -0.605237244399E+02   -0.15106E-02   -0.63631E-04   440   0.973E-02    0.133E-02
DAV:  11    -0.605244641817E+02   -0.73974E-03   -0.26394E-04   392   0.536E-02    0.795E-03
DAV:  12    -0.605248227534E+02   -0.35857E-03   -0.16754E-04   344   0.411E-02    0.432E-03
DAV:  13    -0.605248496902E+02   -0.26937E-04   -0.12511E-05   384   0.212E-02
  65 F= -.60524850E+02 E0= -.60524833E+02  d E =-.181726E+00
 curvature: -37.27 expect dE=-0.138E+02 dE for cont linesearch -0.241E-02
 ZBRENT: extrapolating
 opt :   0.4696  next Energy=   -60.527149 (dE=-0.184E+00)
 bond charge predicted
       N       E                     dE             d eps       ncg     rms          rms(c)
DAV:   1    -0.609667103810E+02   -0.44189E+00   -0.40911E+01   400   0.395E+01    0.347E+00
DAV:   2    -0.606503121548E+02    0.31640E+00   -0.11339E+00   416   0.677E+00    0.184E+00
DAV:   3    -0.605346892048E+02    0.11562E+00   -0.44996E-01   504   0.397E+00    0.512E-01
DAV:   4    -0.605316969346E+02    0.29923E-02   -0.23381E-02   480   0.102E+00    0.263E-01
DAV:   5    -0.605311719397E+02    0.52499E-03   -0.43378E-03   496   0.378E-01    0.794E-02
DAV:   6    -0.605325776930E+02   -0.14058E-02   -0.89711E-04   464   0.195E-01    0.353E-02
DAV:   7    -0.605340539922E+02   -0.14763E-02   -0.50059E-04   408   0.114E-01    0.316E-02
DAV:   8    -0.605361430971E+02   -0.20891E-02   -0.88442E-04   416   0.115E-01    0.159E-02
DAV:   9    -0.605372597827E+02   -0.11167E-02   -0.53067E-04   408   0.789E-02    0.888E-03
DAV:  10    -0.605374364358E+02   -0.17665E-03   -0.74308E-05   368   0.413E-02    0.493E-03
DAV:  11    -0.605374459788E+02   -0.95429E-05   -0.76284E-06   376   0.197E-02
  66 F= -.60537446E+02 E0= -.60537427E+02  d E =-.194322E+00
 curvature: -35.53 expect dE=-0.149E+02 dE for cont linesearch -0.343E-04
 trial: gam= 0.45265 g(F)=  0.285E+00 g(S)=  0.135E+00 ort =-0.991E-02 (trialstep = 0.127E+00)
 search vector abs. value=  0.212E+02
 bond charge predicted
       N       E                     dE             d eps       ncg     rms          rms(c)
DAV:   1    -0.608482237608E+02   -0.31079E+00   -0.34109E+01   400   0.348E+01    0.280E+00
DAV:   2    -0.606563123443E+02    0.19191E+00   -0.89396E-01   432   0.595E+00    0.149E+00
DAV:   3    -0.605814438644E+02    0.74868E-01   -0.29339E-01   488   0.327E+00    0.397E-01
DAV:   4    -0.605798190160E+02    0.16248E-02   -0.14981E-02   472   0.828E-01    0.207E-01
DAV:   5    -0.605798925244E+02   -0.73508E-04   -0.28784E-03   480   0.307E-01    0.638E-02
DAV:   6    -0.605812080231E+02   -0.13155E-02   -0.62823E-04   456   0.160E-01    0.279E-02
DAV:   7    -0.605828664107E+02   -0.16584E-02   -0.52278E-04   400   0.960E-02    0.247E-02
DAV:   8    -0.605847091468E+02   -0.18427E-02   -0.84748E-04   416   0.981E-02    0.126E-02
DAV:   9    -0.605851162402E+02   -0.40709E-03   -0.17487E-04   376   0.609E-02    0.650E-03
DAV:  10    -0.605851479957E+02   -0.31755E-04   -0.22397E-05   368   0.311E-02
  67 F= -.60585148E+02 E0= -.60585136E+02  d E =-.477020E-01
 trial-energy change:   -0.047702  1 .order   -0.046757   -0.052741   -0.040774
 step:   0.3231(harm=  0.5595)  dis= 0.11412  next Energy=   -60.620129 (dE=-0.827E-01)
 bond charge predicted
       N       E                     dE             d eps       ncg     rms          rms(c)
DAV:   1    -0.613055224973E+02   -0.72041E+00   -0.84741E+01   384   0.562E+01    0.459E+00
DAV:   2    -0.608147811995E+02    0.49074E+00   -0.24804E+00   384   0.992E+00    0.240E+00
DAV:   3    -0.606331742460E+02    0.18161E+00   -0.78648E-01   488   0.534E+00    0.658E-01
DAV:   4    -0.606284022584E+02    0.47720E-02   -0.45728E-02   472   0.144E+00    0.339E-01
DAV:   5    -0.606277509149E+02    0.65134E-03   -0.70144E-03   480   0.494E-01    0.110E-01
DAV:   6    -0.606305091212E+02   -0.27582E-02   -0.16635E-03   464   0.258E-01    0.464E-02
DAV:   7    -0.606338671279E+02   -0.33580E-02   -0.15292E-03   480   0.173E-01    0.385E-02
DAV:   8    -0.606366159106E+02   -0.27488E-02   -0.12705E-03   424   0.135E-01    0.195E-02
DAV:   9    -0.606373031789E+02   -0.68727E-03   -0.33979E-04   408   0.844E-02    0.968E-03
DAV:  10    -0.606373288408E+02   -0.25662E-04   -0.27383E-05   376   0.374E-02
  68 F= -.60637329E+02 E0= -.60637324E+02  d E =-.998829E-01
 curvature: -10.03 expect dE=-0.216E+01 dE for cont linesearch -0.140E-01
 ZBRENT: increasing intervall
 opt :   0.7154  next Energy=   -60.646424 (dE=-0.109E+00)
 bond charge predicted
       N       E                     dE             d eps       ncg     rms          rms(c)
DAV:   1    -0.635745927202E+02   -0.29373E+01   -0.40875E+02   448   0.142E+02    0.103E+01
DAV:   2    -0.614045586665E+02    0.21700E+01   -0.11639E+01   384   0.218E+01    0.524E+00
DAV:   3    -0.606628149783E+02    0.74174E+00   -0.34277E+00   480   0.107E+01    0.158E+00
DAV:   4    -0.606382827869E+02    0.24532E-01   -0.25181E-01   488   0.318E+00    0.748E-01
DAV:   5    -0.606333115750E+02    0.49712E-02   -0.35222E-02   496   0.110E+00    0.268E-01
DAV:   6    -0.606417750065E+02   -0.84634E-02   -0.76704E-03   448   0.515E-01    0.106E-01
DAV:   7    -0.606522368758E+02   -0.10462E-01   -0.65307E-03   488   0.351E-01    0.664E-02
DAV:   8    -0.606552783630E+02   -0.30415E-02   -0.14745E-03   480   0.197E-01    0.444E-02
DAV:   9    -0.606559235142E+02   -0.64515E-03   -0.60002E-04   416   0.147E-01    0.175E-02
DAV:  10    -0.606559217992E+02    0.17149E-05   -0.43318E-05   368   0.545E-02
  69 F= -.60655922E+02 E0= -.60655921E+02  d E =-.118476E+00
 curvature:  -6.52 expect dE=-0.486E+01 dE for cont linesearch -0.680E-02
 ZBRENT: bracketing found
 ZBRENT: interpolating
 opt :   0.5335  next Energy=   -60.669466 (dE=-0.132E+00)
 bond charge predicted
       N       E                     dE             d eps       ncg     rms          rms(c)
DAV:   1    -0.613771517027E+02   -0.72123E+00   -0.89316E+01   408   0.658E+01    0.465E+00
DAV:   2    -0.608951221665E+02    0.48203E+00   -0.30543E+00   400   0.117E+01    0.240E+00
DAV:   3    -0.606764381898E+02    0.21868E+00   -0.81558E-01   448   0.490E+00    0.651E-01
DAV:   4    -0.606672287907E+02    0.92094E-02   -0.35301E-02   520   0.124E+00    0.347E-01
DAV:   5    -0.606627292793E+02    0.44995E-02   -0.90723E-03   504   0.574E-01    0.111E-01
DAV:   6    -0.606628610651E+02   -0.13179E-03   -0.14141E-03   464   0.271E-01    0.492E-02
DAV:   7    -0.606631357114E+02   -0.27465E-03   -0.54163E-04   336   0.156E-01    0.372E-02
DAV:   8    -0.606632572109E+02   -0.12150E-03   -0.28630E-04   288   0.159E-01    0.180E-02
DAV:   9    -0.606632501350E+02    0.70760E-05   -0.88324E-05   336   0.901E-02
  70 F= -.60663250E+02 E0= -.60663248E+02  d E =-.125804E+00
 curvature: -12.98 expect dE=-0.476E+01 dE for cont linesearch -0.798E-05
 trial: gam= 0.81948 g(F)=  0.328E+00 g(S)=  0.388E-01 ort =-0.361E-02 (trialstep = 0.208E+00)
 search vector abs. value=  0.146E+02
 bond charge predicted
       N       E                     dE             d eps       ncg     rms          rms(c)
DAV:   1    -0.612739590433E+02   -0.61070E+00   -0.64044E+01   384   0.486E+01    0.404E+00
DAV:   2    -0.608631223606E+02    0.41084E+00   -0.18545E+00   384   0.856E+00    0.210E+00
DAV:   3    -0.607152560673E+02    0.14787E+00   -0.63013E-01   496   0.475E+00    0.567E-01
DAV:   4    -0.607148251037E+02    0.43096E-03   -0.33908E-02   448   0.124E+00    0.295E-01
DAV:   5    -0.607174690376E+02   -0.26439E-02   -0.60200E-03   480   0.448E-01    0.932E-02
DAV:   6    -0.607204197531E+02   -0.29507E-02   -0.16315E-03   472   0.235E-01    0.394E-02
DAV:   7    -0.607216400979E+02   -0.12203E-02   -0.76000E-04   408   0.149E-01    0.292E-02
DAV:   8    -0.607218752066E+02   -0.23511E-03   -0.16657E-04   360   0.100E-01    0.110E-02
DAV:   9    -0.607218679631E+02    0.72435E-05   -0.49616E-05   328   0.691E-02
  71 F= -.60721868E+02 E0= -.60721866E+02  d E =-.586178E-01
 trial-energy change:   -0.058618  1 .order   -0.057549   -0.075828   -0.039270
 step:   0.3779(harm=  0.4320)  dis= 0.10372  next Energy=   -60.738444 (dE=-0.752E-01)
 bond charge predicted
       N       E                     dE             d eps       ncg     rms          rms(c)
DAV:   1    -0.611477962448E+02   -0.42592E+00   -0.43697E+01   384   0.401E+01    0.339E+00
DAV:   2    -0.608494664530E+02    0.29833E+00   -0.12341E+00   384   0.706E+00    0.179E+00
DAV:   3    -0.607407562440E+02    0.10871E+00   -0.45444E-01   488   0.402E+00    0.475E-01
DAV:   4    -0.607408773897E+02   -0.12115E-03   -0.24695E-02   440   0.104E+00    0.248E-01
DAV:   5    -0.607414543466E+02   -0.57696E-03   -0.41885E-03   456   0.391E-01    0.788E-02
DAV:   6    -0.607424229886E+02   -0.96864E-03   -0.94445E-04   448   0.207E-01    0.322E-02
DAV:   7    -0.607426966719E+02   -0.27368E-03   -0.35793E-04   368   0.123E-01    0.216E-02
DAV:   8    -0.607426791060E+02    0.17566E-04   -0.58910E-05   320   0.780E-02
  72 F= -.60742679E+02 E0= -.60742676E+02  d E =-.794290E-01
 curvature:  -8.17 expect dE=-0.253E+01 dE for cont linesearch -0.149E-02
 trial: gam= 0.79393 g(F)=  0.263E+00 g(S)=  0.466E-01 ort = 0.516E-01 (trialstep = 0.242E+00)
 search vector abs. value=  0.961E+01
 bond charge predicted
       N       E                     dE             d eps       ncg     rms          rms(c)
DAV:   1    -0.613741690738E+02   -0.63147E+00   -0.56846E+01   384   0.461E+01    0.396E+00
DAV:   2    -0.609549117979E+02    0.41926E+00   -0.17084E+00   384   0.828E+00    0.203E+00
DAV:   3    -0.608135345428E+02    0.14138E+00   -0.62835E-01   480   0.466E+00    0.594E-01
DAV:   4    -0.608124233112E+02    0.11112E-02   -0.35568E-02   432   0.125E+00    0.310E-01
DAV:   5    -0.608120719417E+02    0.35137E-03   -0.57975E-03   472   0.458E-01    0.976E-02
DAV:   6    -0.608127230880E+02   -0.65115E-03   -0.96795E-04   464   0.221E-01    0.382E-02
DAV:   7    -0.608128175738E+02   -0.94486E-04   -0.35673E-04   352   0.131E-01
  73 F= -.60812818E+02 E0= -.60812811E+02  d E =-.701385E-01
 trial-energy change:   -0.070138  1 .order   -0.071729   -0.084992   -0.058466
 step:   0.7761(harm=  0.7761)  dis= 0.15695  next Energy=   -60.878843 (dE=-0.136E+00)
 bond charge predicted
       N       E                     dE             d eps       ncg     rms          rms(c)
DAV:   1    -0.636839909472E+02   -0.28713E+01   -0.31141E+02   384   0.119E+02    0.961E+00
DAV:   2    -0.615785923372E+02    0.21054E+01   -0.10871E+01   384   0.220E+01    0.483E+00
DAV:   3    -0.608978151786E+02    0.68078E+00   -0.32198E+00   488   0.104E+01    0.157E+00
DAV:   4    -0.608867475057E+02    0.11068E-01   -0.23145E-01   448   0.300E+00    0.771E-01
DAV:   5    -0.608815158175E+02    0.52317E-02   -0.29785E-02   456   0.106E+00    0.279E-01
DAV:   6    -0.608830436844E+02   -0.15279E-02   -0.39634E-03   440   0.454E-01    0.967E-02
DAV:   7    -0.608835456233E+02   -0.50194E-03   -0.11437E-03   504   0.226E-01    0.418E-02
DAV:   8    -0.608834337483E+02    0.11188E-03   -0.19788E-04   336   0.119E-01    0.230E-02
DAV:   9    -0.608834045890E+02    0.29159E-04   -0.10263E-04   352   0.835E-02
  74 F= -.60883405E+02 E0= -.60883352E+02  d E =-.140725E+00
 curvature: -10.63 expect dE=-0.656E+01 dE for cont linesearch -0.146E-03
 trial: gam= 2.14787 g(F)=  0.572E+00 g(S)=  0.456E-01 ort = 0.115E-01 (trialstep = 0.745E-01)
 search vector abs. value=  0.450E+02
 bond charge predicted
       N       E                     dE             d eps       ncg     rms          rms(c)
DAV:   1    -0.611890835676E+02   -0.30565E+00   -0.25056E+01   384   0.305E+01    0.264E+00
DAV:   2    -0.609958023238E+02    0.19328E+00   -0.75972E-01   384   0.564E+00    0.138E+00
DAV:   3    -0.609319760117E+02    0.63826E-01   -0.30644E-01   448   0.325E+00    0.406E-01
DAV:   4    -0.609295558399E+02    0.24202E-02   -0.18663E-02   464   0.869E-01    0.213E-01
DAV:   5    -0.609283317386E+02    0.12241E-02   -0.24125E-03   496   0.312E-01    0.692E-02
DAV:   6    -0.609281937222E+02    0.13802E-03   -0.26565E-04   368   0.137E-01    0.238E-02
DAV:   7    -0.609281697010E+02    0.24021E-04   -0.85093E-05   352   0.799E-02
  75 F= -.60928170E+02 E0= -.60928090E+02  d E =-.447651E-01
 ZBRENT: can't locate minimum, use default step
 trial-energy change:   -0.044765  1 .order   -0.044886   -0.047865   -0.041906
 step:   0.2981(harm=  0.5986)  dis= 0.12592  next Energy=   -61.075641 (dE=-0.192E+00)
 bond charge predicted
       N       E                     dE             d eps       ncg     rms          rms(c)
DAV:   1    -0.634575288507E+02   -0.25293E+01   -0.24558E+02   384   0.103E+02    0.873E+00
DAV:   2    -0.616312992593E+02    0.18262E+01   -0.87039E+00   392   0.198E+01    0.439E+00
DAV:   3    -0.610603691841E+02    0.57093E+00   -0.28353E+00   440   0.993E+00    0.143E+00
DAV:   4    -0.610439165598E+02    0.16453E-01   -0.20086E-01   456   0.284E+00    0.731E-01
DAV:   5    -0.610365965136E+02    0.73200E-02   -0.23374E-02   504   0.936E-01    0.268E-01
DAV:   6    -0.610357634726E+02    0.83304E-03   -0.21304E-03   472   0.356E-01    0.890E-02
DAV:   7    -0.610356484304E+02    0.11504E-03   -0.57172E-04   496   0.162E-01    0.305E-02
DAV:   8    -0.610356498484E+02   -0.14180E-05   -0.92123E-05   344   0.776E-02
  76 F= -.61035650E+02 E0= -.61035365E+02  d E =-.152245E+00
 curvature: -14.08 expect dE=-0.630E+01 dE for cont linesearch -0.373E-01
 ZBRENT: increasing intervall
 opt :   0.7452  next Energy=   -61.093120 (dE=-0.210E+00)
 bond charge predicted
       N       E                     dE             d eps       ncg     rms          rms(c)
DAV:   1    -0.674593090914E+02   -0.64237E+01   -0.14595E+03   384   0.306E+02    0.211E+01
DAV:   2    -0.633806705514E+02    0.40786E+01   -0.85378E+01   392   0.571E+01    0.107E+01
DAV:   3    -0.611376801877E+02    0.22430E+01   -0.13117E+01   480   0.229E+01    0.440E+00
DAV:   4    -0.610842600316E+02    0.53420E-01   -0.92003E-01   528   0.601E+00    0.207E+00
DAV:   5    -0.610540060853E+02    0.30254E-01   -0.10017E-01   520   0.204E+00    0.793E-01
DAV:   6    -0.610514786240E+02    0.25275E-02   -0.14432E-02   448   0.814E-01    0.211E-01
[...]
DAV:   4    -0.616508753773E+02    0.85457E-05   -0.10585E-04   232   0.764E-02
 116 F= -.61650875E+02 E0= -.61650022E+02  d E =-.463088E-02
 trial-energy change:   -0.004631  1 .order   -0.004645   -0.005936   -0.003354
 step:   0.5689(harm=  0.5689)  dis= 0.02027  next Energy=   -61.653067 (dE=-0.682E-02)
 bond charge predicted
       N       E                     dE             d eps       ncg     rms          rms(c)
DAV:   1    -0.616524710228E+02   -0.15871E-02   -0.10871E+00   384   0.675E+00    0.266E-01
DAV:   2    -0.616534606621E+02   -0.98964E-03   -0.21998E-02   504   0.100E+00    0.160E-01
DAV:   3    -0.616531157613E+02    0.34490E-03   -0.16225E-03   576   0.305E-01    0.497E-02
DAV:   4    -0.616531007826E+02    0.14979E-04   -0.18813E-04   296   0.102E-01
 117 F= -.61653101E+02 E0= -.61652282E+02  d E =-.685628E-02
 curvature:  -1.25 expect dE=-0.214E-01 dE for cont linesearch -0.163E-05
 trial: gam= 0.76611 g(F)=  0.153E-01 g(S)=  0.182E-02 ort = 0.371E-03 (trialstep = 0.312E+00)
 search vector abs. value=  0.795E-01
 bond charge predicted
       N       E                     dE             d eps       ncg     rms          rms(c)
DAV:   1    -0.616570227150E+02   -0.39070E-02   -0.67795E-01   384   0.552E+00    0.231E-01
DAV:   2    -0.616574822915E+02   -0.45958E-03   -0.13323E-02   504   0.784E-01    0.137E-01
DAV:   3    -0.616572240641E+02    0.25823E-03   -0.86857E-04   552   0.238E-01    0.404E-02
DAV:   4    -0.616572153348E+02    0.87293E-05   -0.95422E-05   216   0.752E-02
 118 F= -.61657215E+02 E0= -.61656322E+02  d E =-.411455E-02
 trial-energy change:   -0.004115  1 .order   -0.004126   -0.005414   -0.002839
 step:   0.6555(harm=  0.6555)  dis= 0.01758  next Energy=   -61.658792 (dE=-0.569E-02)
 bond charge predicted
       N       E                     dE             d eps       ncg     rms          rms(c)
DAV:   1    -0.616585955505E+02   -0.13715E-02   -0.82443E-01   384   0.609E+00    0.254E-01
DAV:   2    -0.616591852565E+02   -0.58971E-03   -0.16149E-02   504   0.860E-01    0.151E-01
DAV:   3    -0.616588760634E+02    0.30919E-03   -0.10146E-03   552   0.259E-01    0.440E-02
DAV:   4    -0.616588659792E+02    0.10084E-04   -0.11109E-04   232   0.816E-02
 119 F= -.61658866E+02 E0= -.61657877E+02  d E =-.576520E-02
 curvature:  -1.50 expect dE=-0.373E-01 dE for cont linesearch -0.246E-05
 trial: gam= 1.47182 g(F)=  0.211E-01 g(S)=  0.381E-02 ort = 0.361E-03 (trialstep = 0.153E+00)
 search vector abs. value=  0.198E+00
 bond charge predicted
       N       E                     dE             d eps       ncg     rms          rms(c)
DAV:   1    -0.616622432289E+02   -0.33672E-02   -0.38864E-01   384   0.422E+00    0.173E-01
DAV:   2    -0.616625598580E+02   -0.31663E-03   -0.73836E-03   504   0.594E-01    0.105E-01
DAV:   3    -0.616624084017E+02    0.15146E-03   -0.40098E-04   432   0.165E-01    0.284E-02
DAV:   4    -0.616624065100E+02    0.18917E-05   -0.62231E-05   224   0.631E-02
 120 F= -.61662407E+02 E0= -.61661471E+02  d E =-.354053E-02
 ZBRENT: can't locate minimum, use default step
 trial-energy change:   -0.003541  1 .order   -0.003515   -0.003880   -0.003150
 step:   0.6107(harm=  0.8109)  dis= 0.02309  next Energy=   -61.669170 (dE=-0.103E-01)
 bond charge predicted
       N       E                     dE             d eps       ncg     rms          rms(c)
DAV:   1    -0.616672479898E+02   -0.48396E-02   -0.35031E+00   384   0.127E+01    0.522E-01
DAV:   2    -0.616702632129E+02   -0.30152E-02   -0.67364E-02   520   0.177E+00    0.314E-01
DAV:   3    -0.616689327087E+02    0.13305E-02   -0.37274E-03   536   0.455E-01    0.884E-02
DAV:   4    -0.616688925489E+02    0.40160E-04   -0.42481E-04   480   0.154E-01
 121 F= -.61668893E+02 E0= -.61668090E+02  d E =-.100266E-01
 curvature:  -2.87 expect dE=-0.488E-01 dE for cont linesearch -0.697E-03
 trial: gam= 0.46333 g(F)=  0.131E-01 g(S)=  0.394E-02 ort = 0.694E-02 (trialstep = 0.244E+00)
 search vector abs. value=  0.660E-01
 bond charge predicted
       N       E                     dE             d eps       ncg     rms          rms(c)
DAV:   1    -0.616731096791E+02   -0.41770E-02   -0.30466E-01   384   0.386E+00    0.182E-01
DAV:   2    -0.616731911974E+02   -0.81518E-04   -0.67628E-03   488   0.584E-01    0.111E-01
DAV:   3    -0.616730209747E+02    0.17022E-03   -0.71260E-04   480   0.193E-01    0.375E-02
DAV:   4    -0.616730104302E+02    0.10545E-04   -0.90167E-05   264   0.700E-02
 122 F= -.61673010E+02 E0= -.61672266E+02  d E =-.411788E-02
 trial-energy change:   -0.004118  1 .order   -0.004118   -0.004938   -0.003297
 step:   0.7348(harm=  0.7348)  dis= 0.01065  next Energy=   -61.676320 (dE=-0.743E-02)
 bond charge predicted
       N       E                     dE             d eps       ncg     rms          rms(c)
DAV:   1    -0.616767378550E+02   -0.37169E-02   -0.12242E+00   384   0.775E+00    0.361E-01
DAV:   2    -0.616770579418E+02   -0.32009E-03   -0.27128E-02   488   0.115E+00    0.218E-01
DAV:   3    -0.616763798824E+02    0.67806E-03   -0.28427E-03   504   0.375E-01    0.756E-02
DAV:   4    -0.616763383106E+02    0.41572E-04   -0.39514E-04   376   0.144E-01
 123 F= -.61676338E+02 E0= -.61675707E+02  d E =-.744576E-02
 curvature:  -1.20 expect dE=-0.386E-01 dE for cont linesearch -0.212E-06
 trial: gam= 2.17731 g(F)=  0.266E-01 g(S)=  0.564E-02 ort = 0.108E-03 (trialstep = 0.654E-01)
 search vector abs. value=  0.345E+00
 bond charge predicted
       N       E                     dE             d eps       ncg     rms          rms(c)
DAV:   1    -0.616783115429E+02   -0.19317E-02   -0.10928E-01   392   0.229E+00    0.116E-01
DAV:   2    -0.616783134306E+02   -0.18877E-05   -0.25035E-03   488   0.353E-01    0.706E-02
DAV:   3    -0.616782402263E+02    0.73204E-04   -0.29946E-04   352   0.123E-01
 124 F= -.61678240E+02 E0= -.61677650E+02  d E =-.190192E-02
 ZBRENT: can't locate minimum, use default step
 trial-energy change:   -0.001902  1 .order   -0.001887   -0.002122   -0.001652
 step:   0.2615(harm=  0.2951)  dis= 0.00909  next Energy=   -61.681126 (dE=-0.479E-02)
 bond charge predicted
       N       E                     dE             d eps       ncg     rms          rms(c)
DAV:   1    -0.616822405440E+02   -0.39271E-02   -0.98087E-01   384   0.685E+00    0.347E-01
DAV:   2    -0.616823400941E+02   -0.99550E-04   -0.22126E-02   512   0.103E+00    0.210E-01
DAV:   3    -0.616816892108E+02    0.65088E-03   -0.25941E-03   512   0.360E-01    0.644E-02
DAV:   4    -0.616816486434E+02    0.40567E-04   -0.37594E-04   408   0.139E-01
 125 F= -.61681649E+02 E0= -.61681153E+02  d E =-.531033E-02
 curvature:  -1.54 expect dE=-0.290E-01 dE for cont linesearch -0.326E-03
 trial: gam= 0.13855 g(F)=  0.131E-01 g(S)=  0.583E-02 ort = 0.855E-02 (trialstep = 0.105E+00)
 search vector abs. value=  0.279E-01
 bond charge predicted
       N       E                     dE             d eps       ncg     rms          rms(c)
DAV:   1    -0.616835445220E+02   -0.18553E-02   -0.23185E-02   392   0.109E+00    0.606E-02
DAV:   2    -0.616835372561E+02    0.72660E-05   -0.60161E-04   512   0.172E-01
 126 F= -.61683537E+02 E0= -.61683032E+02  d E =-.188861E-02
 ZBRENT: can't locate minimum, use default step
 trial-energy change:   -0.001889  1 .order   -0.001915   -0.002099   -0.001731
 step:   0.4185(harm=  0.5965)  dis= 0.00481  next Energy=   -61.687634 (dE=-0.599E-02)
 bond charge predicted
       N       E                     dE             d eps       ncg     rms          rms(c)
DAV:   1    -0.616871068987E+02   -0.35624E-02   -0.20959E-01   384   0.326E+00    0.186E-01
DAV:   2    -0.616869852732E+02    0.12163E-03   -0.52859E-03   512   0.513E-01    0.113E-01
DAV:   3    -0.616867625281E+02    0.22275E-03   -0.71040E-04   488   0.200E-01    0.317E-02
DAV:   4    -0.616867531220E+02    0.94061E-05   -0.10539E-04   248   0.708E-02
 127 F= -.61686753E+02 E0= -.61686214E+02  d E =-.510448E-02
 curvature:  -0.36 expect dE=-0.450E-02 dE for cont linesearch -0.260E-03
 trial: gam= 0.50448 g(F)=  0.113E-01 g(S)=  0.124E-02 ort = 0.449E-02 (trialstep = 0.167E+00)
 search vector abs. value=  0.241E-01
 bond charge predicted
       N       E                     dE             d eps       ncg     rms          rms(c)
DAV:   1    -0.616887447499E+02   -0.19822E-02   -0.65341E-02   384   0.180E+00    0.770E-02
DAV:   2    -0.616887797764E+02   -0.35027E-04   -0.16190E-03   504   0.277E-01    0.478E-02
DAV:   3    -0.616887366639E+02    0.43112E-04   -0.14070E-04   248   0.864E-02
 128 F= -.61688737E+02 E0= -.61688135E+02  d E =-.198354E-02
 trial-energy change:   -0.001984  1 .order   -0.001982   -0.002472   -0.001491
 step:   0.4216(harm=  0.4216)  dis= 0.00514  next Energy=   -61.689867 (dE=-0.311E-02)
 bond charge predicted
       N       E                     dE             d eps       ncg     rms          rms(c)
DAV:   1    -0.616898658273E+02   -0.10861E-02   -0.15021E-01   384   0.272E+00    0.117E-01
DAV:   2    -0.616899564976E+02   -0.90670E-04   -0.36551E-03   536   0.417E-01    0.740E-02
DAV:   3    -0.616898605505E+02    0.95947E-04   -0.33921E-04   440   0.126E-01
 129 F= -.61689861E+02 E0= -.61689158E+02  d E =-.310743E-02
 curvature:  -0.34 expect dE=-0.554E-02 dE for cont linesearch -0.248E-07
 trial: gam= 1.56674 g(F)=  0.137E-01 g(S)=  0.240E-02 ort =-0.417E-04 (trialstep = 0.700E-01)
 search vector abs. value=  0.752E-01
 bond charge predicted
       N       E                     dE             d eps       ncg     rms          rms(c)
DAV:   1    -0.616909273166E+02   -0.97082E-03   -0.31484E-02   384   0.119E+00    0.576E-02
DAV:   2    -0.616909342827E+02   -0.69661E-05   -0.59233E-04   440   0.171E-01
 130 F= -.61690934E+02 E0= -.61690206E+02  d E =-.107373E-02
 ZBRENT: can't locate minimum, use default step
 trial-energy change:   -0.001074  1 .order   -0.001069   -0.001123   -0.001015
 step:   0.2801(harm=  0.7291)  dis= 0.00706  next Energy=   -61.695704 (dE=-0.584E-02)
 bond charge predicted
       N       E                     dE             d eps       ncg     rms          rms(c)
DAV:   1    -0.616935046919E+02   -0.25774E-02   -0.28253E-01   384   0.355E+00    0.163E-01
DAV:   2    -0.616936328169E+02   -0.12812E-03   -0.54982E-03   512   0.510E-01    0.960E-02
DAV:   3    -0.616934890643E+02    0.14375E-03   -0.43220E-04   408   0.148E-01    0.320E-02
DAV:   4    -0.616934856205E+02    0.34438E-05   -0.53137E-05   240   0.590E-02
 131 F= -.61693486E+02 E0= -.61692657E+02  d E =-.362507E-02
 curvature:  -0.92 expect dE=-0.133E-01 dE for cont linesearch -0.118E-02
 ZBRENT: increasing intervall
 opt :   0.7003  next Energy=   -61.695676 (dE=-0.582E-02)
 bond charge predicted
       N       E                     dE             d eps       ncg     rms          rms(c)
DAV:   1    -0.616958576443E+02   -0.23686E-02   -0.11314E+00   384   0.711E+00    0.318E-01
DAV:   2    -0.616964311434E+02   -0.57350E-03   -0.22161E-02   528   0.102E+00    0.184E-01
DAV:   3    -0.616958930597E+02    0.53808E-03   -0.18196E-03   544   0.313E-01    0.647E-02
DAV:   4    -0.616958666738E+02    0.26386E-04   -0.17147E-04   288   0.103E-01
 132 F= -.61695867E+02 E0= -.61694791E+02  d E =-.600612E-02
 curvature:  -1.70 expect dE=-0.393E-01 dE for cont linesearch -0.372E-04
 trial: gam= 0.76360 g(F)=  0.173E-01 g(S)=  0.588E-02 ort = 0.128E-02 (trialstep = 0.196E+00)
 search vector abs. value=  0.689E-01
 bond charge predicted
       N       E                     dE             d eps       ncg     rms          rms(c)
DAV:   1    -0.616999185571E+02   -0.40255E-02   -0.23230E-01   392   0.321E+00    0.164E-01
DAV:   2    -0.616998640071E+02    0.54550E-04   -0.56969E-03   536   0.516E-01    0.978E-02
DAV:   3    -0.616996791842E+02    0.18482E-03   -0.78110E-04   464   0.184E-01    0.292E-02
DAV:   4    -0.616996678694E+02    0.11315E-04   -0.82236E-05   240   0.655E-02
 133 F= -.61699668E+02 E0= -.61698748E+02  d E =-.380120E-02
 trial-energy change:   -0.003801  1 .order   -0.003789   -0.004728   -0.002850
 step:   0.4936(harm=  0.4936)  dis= 0.01207  next Energy=   -61.701818 (dE=-0.595E-02)
 bond charge predicted
       N       E                     dE             d eps       ncg     rms          rms(c)
DAV:   1    -0.617025107992E+02   -0.28316E-02   -0.53511E-01   384   0.487E+00    0.250E-01
DAV:   2    -0.617023699544E+02    0.14084E-03   -0.13193E-02   536   0.788E-01    0.149E-01
DAV:   3    -0.617019426276E+02    0.42733E-03   -0.18444E-03   472   0.282E-01    0.447E-02
DAV:   4    -0.617019156828E+02    0.26945E-04   -0.19257E-04   304   0.999E-02
 134 F= -.61701916E+02 E0= -.61701185E+02  d E =-.604901E-02
 curvature:  -0.71 expect dE=-0.284E-01 dE for cont linesearch -0.556E-06
 trial: gam= 1.80270 g(F)=  0.380E-01 g(S)=  0.221E-02 ort = 0.233E-03 (trialstep = 0.665E-01)
 search vector abs. value=  0.265E+00
 bond charge predicted
       N       E                     dE             d eps       ncg     rms          rms(c)
DAV:   1    -0.617046019006E+02   -0.26593E-02   -0.98642E-02   384   0.207E+00    0.110E-01
DAV:   2    -0.617045263593E+02    0.75541E-04   -0.22459E-03   496   0.320E-01    0.635E-02
DAV:   3    -0.617044501306E+02    0.76229E-04   -0.32876E-04   344   0.118E-01
 135 F= -.61704450E+02 E0= -.61703788E+02  d E =-.253445E-02
 ZBRENT: can't locate minimum, use default step
 trial-energy change:   -0.002534  1 .order   -0.002482   -0.002703   -0.002262
 step:   0.2658(harm=  0.4068)  dis= 0.01291  next Energy=   -61.710190 (dE=-0.827E-02)
 bond charge predicted
       N       E                     dE             d eps       ncg     rms          rms(c)
DAV:   1    -0.617111125674E+02   -0.65862E-02   -0.88592E-01   384   0.618E+00    0.330E-01
DAV:   2    -0.617105806950E+02    0.53187E-03   -0.20003E-02   504   0.948E-01    0.191E-01
DAV:   3    -0.617099080667E+02    0.67263E-03   -0.27468E-03   472   0.340E-01    0.607E-02
DAV:   4    -0.617098634435E+02    0.44623E-04   -0.25264E-04   328   0.116E-01
 136 F= -.61709863E+02 E0= -.61709357E+02  d E =-.794776E-02
 curvature:  -1.10 expect dE=-0.174E-01 dE for cont linesearch -0.143E-02
 ZBRENT: increasing intervall
 opt :   0.6646  next Energy=   -61.711115 (dE=-0.920E-02)
 bond charge predicted
       N       E                     dE             d eps       ncg     rms          rms(c)
DAV:   1    -0.617160479041E+02   -0.61398E-02   -0.35336E+00   384   0.123E+01    0.656E-01
DAV:   2    -0.617136433292E+02    0.24046E-02   -0.80936E-02   504   0.192E+00    0.376E-01
DAV:   3    -0.617110338926E+02    0.26094E-02   -0.11445E-02   472   0.689E-01    0.124E-01
DAV:   4    -0.617108526954E+02    0.18120E-03   -0.11580E-03   480   0.231E-01    0.634E-02
DAV:   5    -0.617108256269E+02    0.27069E-04   -0.23223E-04   304   0.101E-01
 137 F= -.61710826E+02 E0= -.61710537E+02  d E =-.890994E-02
 curvature:  -0.96 expect dE=-0.425E-01 dE for cont linesearch -0.748E-03
 trial: gam= 0.00000 g(F)=  0.392E-01 g(S)=  0.504E-02 ort =-0.144E-01 (trialstep = 0.186E+00)
 search vector abs. value=  0.443E-01
 bond charge predicted
       N       E                     dE             d eps       ncg     rms          rms(c)
DAV:   1    -0.617166860720E+02   -0.58334E-02   -0.13902E-01   400   0.269E+00    0.114E-01
DAV:   2    -0.617166752142E+02    0.10858E-04   -0.28194E-03   520   0.347E-01    0.708E-02
DAV:   3    -0.617166027287E+02    0.72486E-04   -0.20563E-04   320   0.101E-01
 138 F= -.61716603E+02 E0= -.61716141E+02  d E =-.577710E-02
 trial-energy change:   -0.005777  1 .order   -0.005772   -0.008240   -0.003305
 step:   0.3107(harm=  0.3107)  dis= 0.00567  next Energy=   -61.717704 (dE=-0.688E-02)
 bond charge predicted
       N       E                     dE             d eps       ncg     rms          rms(c)
DAV:   1    -0.617176952759E+02   -0.10201E-02   -0.61565E-02   400   0.179E+00    0.798E-02
DAV:   2    -0.617176875408E+02    0.77351E-05   -0.12288E-03   520   0.229E-01    0.501E-02
DAV:   3    -0.617176550902E+02    0.32451E-04   -0.88245E-05   280   0.676E-02
 139 F= -.61717655E+02 E0= -.61717030E+02  d E =-.682946E-02
 curvature:  -0.16 expect dE=-0.293E-02 dE for cont linesearch -0.439E-06
 trial: gam= 0.43400 g(F)=  0.179E-01 g(S)=  0.956E-03 ort =-0.354E-03 (trialstep = 0.211E+00)
 search vector abs. value=  0.269E-01
 bond charge predicted
       N       E                     dE             d eps       ncg     rms          rms(c)
DAV:   1    -0.617202715888E+02   -0.25840E-02   -0.13815E-01   384   0.259E+00    0.112E-01
DAV:   2    -0.617202442199E+02    0.27369E-04   -0.39868E-03   512   0.406E-01    0.727E-02
DAV:   3    -0.617201660208E+02    0.78199E-04   -0.47840E-04   440   0.133E-01
 140 F= -.61720166E+02 E0= -.61719311E+02  d E =-.251093E-02
 trial-energy change:   -0.002511  1 .order   -0.002489   -0.003948   -0.001031
 step:   0.2855(harm=  0.2855)  dis= 0.00351  next Energy=   -61.720326 (dE=-0.267E-02)
 bond charge predicted
       N       E                     dE             d eps       ncg     rms          rms(c)
DAV:   1    -0.617203972224E+02   -0.15300E-03   -0.17538E-02   384   0.921E-01    0.516E-02
DAV:   2    -0.617203692898E+02    0.27933E-04   -0.48649E-04   512   0.148E-01
 141 F= -.61720369E+02 E0= -.61719448E+02  d E =-.271420E-02
 curvature:  -0.21 expect dE=-0.895E-03 dE for cont linesearch -0.691E-05
 trial: gam= 0.16604 g(F)=  0.243E-02 g(S)=  0.193E-02 ort = 0.951E-03 (trialstep = 0.226E+00)
 search vector abs. value=  0.542E-02
 bond charge predicted
       N       E                     dE             d eps       ncg     rms          rms(c)
DAV:   1    -0.617212798017E+02   -0.88258E-03   -0.25126E-02   456   0.113E+00    0.638E-02
DAV:   2    -0.617212334808E+02    0.46321E-04   -0.39440E-04   472   0.146E-01
 142 F= -.61721233E+02 E0= -.61720322E+02  d E =-.864191E-03
 ZBRENT: can't locate minimum, use default step
 trial-energy change:   -0.000864  1 .order   -0.000912   -0.001021   -0.000803
 step:   0.9037(harm=  1.0568)  dis= 0.00419  next Energy=   -61.722757 (dE=-0.239E-02)
 bond charge predicted
       N       E                     dE             d eps       ncg     rms          rms(c)
DAV:   1    -0.617225667543E+02   -0.12870E-02   -0.22401E-01   456   0.334E+00    0.192E-01
DAV:   2    -0.617221399521E+02    0.42680E-03   -0.34719E-03   536   0.425E-01    0.104E-01
DAV:   3    -0.617219164370E+02    0.22352E-03   -0.75559E-04   464   0.193E-01    0.275E-02
DAV:   4    -0.617219074240E+02    0.90130E-05   -0.55318E-05   216   0.542E-02
 143 F= -.61721907E+02 E0= -.61721063E+02  d E =-.153813E-02
 curvature:  -0.61 expect dE=-0.108E-01 dE for cont linesearch -0.160E-03
 trial: gam= 0.00000 g(F)=  0.144E-01 g(S)=  0.324E-02 ort =-0.119E-02 (trialstep = 0.111E+00)
 search vector abs. value=  0.177E-01
 bond charge predicted
       N       E                     dE             d eps       ncg     rms          rms(c)
DAV:   1    -0.617233850725E+02   -0.14686E-02   -0.26147E-02   400   0.107E+00    0.580E-02
DAV:   2    -0.617233682109E+02    0.16862E-04   -0.74284E-04   504   0.183E-01
 144 F= -.61723368E+02 E0= -.61722476E+02  d E =-.146079E-02
 trial-energy change:   -0.001461  1 .order   -0.001489   -0.001958   -0.001021
 step:   0.2312(harm=  0.2312)  dis= 0.00339  next Energy=   -61.723952 (dE=-0.205E-02)
 bond charge predicted
       N       E                     dE             d eps       ncg     rms          rms(c)
DAV:   1    -0.617237975361E+02   -0.41246E-03   -0.29120E-02   400   0.113E+00    0.670E-02
DAV:   2    -0.617237655903E+02    0.31946E-04   -0.76501E-04   528   0.189E-01
 145 F= -.61723766E+02 E0= -.61722834E+02  d E =-.185817E-02
 curvature:  -0.12 expect dE=-0.491E-03 dE for cont linesearch -0.367E-05
 trial: gam= 0.28248 g(F)=  0.228E-02 g(S)=  0.197E-02 ort =-0.750E-03 (trialstep = 0.135E+00)
 search vector abs. value=  0.524E-02
 reached required accuracy - stopping structural energy minimisation
 writing wavefunctions
Sun Mar  6 20:15:40 CST 2022
