Sun Mar  6 19:42:12 CST 2022
 running on   48 total cores
 distrk:  each k-point on   48 cores,    1 groups
 distr:  one band on   24 cores,    2 groups
 using from now: INCAR     
 vasp.5.3.5 31Mar14 (build Jan 11 2016 19:50:55) complex                        
  
 POSCAR found type information on POSCAR  B  C  Na
 POSCAR found :  3 types and       9 ions
 scaLAPACK will be used

 ----------------------------------------------------------------------------- 
|                                                                             |
|           W    W    AA    RRRRR   N    N  II  N    N   GGGG   !!!           |
|           W    W   A  A   R    R  NN   N  II  NN   N  G    G  !!!           |
|           W    W  A    A  R    R  N N  N  II  N N  N  G       !!!           |
|           W WW W  AAAAAA  RRRRR   N  N N  II  N  N N  G  GGG   !            |
|           WW  WW  A    A  R   R   N   NN  II  N   NN  G    G                |
|           W    W  A    A  R    R  N    N  II  N    N   GGGG   !!!           |
|                                                                             |
|      For optimal performance we recommend to set                            |
|        NCORE= 4 - approx SQRT( number of cores)                             |
|      NCORE specifies how many cores store one orbital (NPAR=cpu/NCORE).     |
|      This setting can  greatly improve the performance of VASP for DFT.     |
|      The default, NPAR=number of cores might be grossly inefficient         |
|      on modern multi-core architectures or massively parallel machines.     |
|      Do your own testing !!!!                                               |
|      Unfortunately you need to use the default for GW and RPA calculations. |
|      (for HF NCORE is supported but not extensively tested yet)             |
|                                                                             |
 ----------------------------------------------------------------------------- 

 LDA part: xc-table for Pade appr. of Perdew
 POSCAR, INCAR and KPOINTS ok, starting setup
 WARNING: small aliasing (wrap around) errors must be expected
 FFT: planning ...
 WAVECAR not read
 entering main loop
       N       E                     dE             d eps       ncg     rms          rms(c)
DAV:   1     0.282848103399E+03    0.28285E+03   -0.12243E+04   448   0.873E+02
DAV:   2    -0.100132345885E+02   -0.29286E+03   -0.28549E+03   592   0.238E+02
DAV:   3    -0.662695283454E+02   -0.56256E+02   -0.55472E+02   472   0.108E+02
DAV:   4    -0.693099443474E+02   -0.30404E+01   -0.30332E+01   552   0.305E+01
DAV:   5    -0.693879098721E+02   -0.77966E-01   -0.77834E-01   520   0.398E+00    0.128E+01
DAV:   6    -0.630179907393E+02    0.63699E+01   -0.10031E+01   472   0.324E+01    0.684E+00
DAV:   7    -0.610943062009E+02    0.19237E+01   -0.73595E+00   528   0.147E+01    0.287E+00
DAV:   8    -0.608395607749E+02    0.25475E+00   -0.56671E-01   472   0.438E+00    0.978E-01
DAV:   9    -0.607394978828E+02    0.10006E+00   -0.12581E-01   472   0.184E+00    0.448E-01
DAV:  10    -0.606837768625E+02    0.55721E-01   -0.54487E-02   488   0.114E+00    0.253E-01
DAV:  11    -0.606749553024E+02    0.88216E-02   -0.14731E-02   560   0.552E-01    0.212E-01
DAV:  12    -0.606770662971E+02   -0.21110E-02   -0.68804E-03   464   0.361E-01    0.833E-02
DAV:  13    -0.606797618317E+02   -0.26955E-02   -0.16724E-03   440   0.192E-01    0.538E-02
DAV:  14    -0.606834102284E+02   -0.36484E-02   -0.18806E-03   344   0.141E-01    0.277E-02
DAV:  15    -0.606849773785E+02   -0.15672E-02   -0.91007E-04   312   0.775E-02    0.159E-02
DAV:  16    -0.606854520666E+02   -0.47469E-03   -0.26768E-04   296   0.639E-02    0.103E-02
DAV:  17    -0.606856858973E+02   -0.23383E-03   -0.10695E-04   288   0.370E-02    0.805E-03
DAV:  18    -0.606858417511E+02   -0.15585E-03   -0.72752E-05   272   0.305E-02    0.373E-03
DAV:  19    -0.606859237732E+02   -0.82022E-04   -0.29308E-05   304   0.215E-02
   1 F= -.60685924E+02 E0= -.60673962E+02  d E =-.606859E+02
 curvature:   0.00 expect dE= 0.000E+00 dE for cont linesearch  0.000E+00
 trial: gam= 0.00000 g(F)=  0.540E+00 g(S)=  0.515E-01 ort = 0.000E+00 (trialstep = 0.100E+01)
 search vector abs. value=  0.592E+00
 bond charge predicted
       N       E                     dE             d eps       ncg     rms          rms(c)
DAV:   1    -0.600899460357E+02    0.59590E+00   -0.85475E+01   448   0.686E+01    0.218E+00
DAV:   2    -0.601542394704E+02   -0.64293E-01   -0.19935E+00   496   0.968E+00    0.167E+00
DAV:   3    -0.601277500771E+02    0.26489E-01   -0.11295E-01   472   0.221E+00    0.125E+00
DAV:   4    -0.601183746769E+02    0.93754E-02   -0.24007E-02   512   0.910E-01    0.376E-01
DAV:   5    -0.601166915202E+02    0.16832E-02   -0.10222E-02   480   0.628E-01    0.946E-02
DAV:   6    -0.601168236729E+02   -0.13215E-03   -0.16352E-03   448   0.247E-01    0.410E-02
DAV:   7    -0.601168575701E+02   -0.33897E-04   -0.59479E-05   320   0.558E-02
   2 F= -.60116858E+02 E0= -.60102738E+02  d E =0.569066E+00
 trial-energy change:    0.569066  1 .order    0.469820   -0.591618    1.531258
 step:   0.2291(harm=  0.2787)  dis= 0.01688  next Energy=   -60.752511 (dE=-0.666E-01)
 bond charge predicted
       N       E                     dE             d eps       ncg     rms          rms(c)
DAV:   1    -0.607221678853E+02   -0.60534E+00   -0.48966E+01   384   0.484E+01    0.184E+00
DAV:   2    -0.607773361687E+02   -0.55168E-01   -0.13872E+00   496   0.795E+00    0.120E+00
DAV:   3    -0.607537835019E+02    0.23553E-01   -0.13814E-01   472   0.252E+00    0.483E-01
DAV:   4    -0.607531430558E+02    0.64045E-03   -0.16200E-02   480   0.790E-01    0.178E-01
DAV:   5    -0.607530738250E+02    0.69231E-04   -0.16508E-03   512   0.221E-01    0.513E-02
DAV:   6    -0.607530558856E+02    0.17939E-04   -0.26968E-04   432   0.117E-01
   3 F= -.60753056E+02 E0= -.60741732E+02  d E =-.671321E-01
 curvature:  -0.14 expect dE=-0.264E-01 dE for cont linesearch -0.237E-04
 trial: gam= 0.33841 g(F)=  0.159E+00 g(S)=  0.311E-01 ort =-0.100E-01 (trialstep = 0.846E+00)
 search vector abs. value=  0.251E+00
 bond charge predicted
       N       E                     dE             d eps       ncg     rms          rms(c)
DAV:   1    -0.608022415915E+02   -0.49168E-01   -0.26304E+01   384   0.323E+01    0.102E+00
DAV:   2    -0.608416824652E+02   -0.39441E-01   -0.67007E-01   504   0.478E+00    0.626E-01
DAV:   3    -0.608346457958E+02    0.70367E-02   -0.40709E-02   512   0.131E+00    0.261E-01
DAV:   4    -0.608337507661E+02    0.89503E-03   -0.57749E-03   432   0.480E-01    0.111E-01
DAV:   5    -0.608336558786E+02    0.94887E-04   -0.68125E-04   472   0.159E-01
   4 F= -.60833656E+02 E0= -.60815819E+02  d E =-.806000E-01
 trial-energy change:   -0.080600  1 .order   -0.084116   -0.157965   -0.010266
 step:   0.9154(harm=  0.9046)  dis= 0.06667  next Energy=   -60.834076 (dE=-0.810E-01)
 bond charge predicted
       N       E                     dE             d eps       ncg     rms          rms(c)
DAV:   1    -0.608339510337E+02   -0.20027E-03   -0.17206E-01   400   0.248E+00    0.836E-02
DAV:   2    -0.608341000365E+02   -0.14900E-03   -0.35670E-03   512   0.371E-01    0.526E-02
DAV:   3    -0.608340695584E+02    0.30478E-04   -0.27872E-04   368   0.109E-01
   5 F= -.60834070E+02 E0= -.60815731E+02  d E =-.810137E-01
 curvature:  -0.59 expect dE=-0.713E-01 dE for cont linesearch -0.295E-05
 trial: gam= 0.66512 g(F)=  0.110E+00 g(S)=  0.113E-01 ort =-0.112E-02 (trialstep = 0.860E+00)
 search vector abs. value=  0.231E+00
 bond charge predicted
       N       E                     dE             d eps       ncg     rms          rms(c)
DAV:   1    -0.608201920637E+02    0.13908E-01   -0.24672E+01   384   0.325E+01    0.943E-01
DAV:   2    -0.608640494400E+02   -0.43857E-01   -0.64621E-01   512   0.492E+00    0.619E-01
DAV:   3    -0.608592796124E+02    0.47698E-02   -0.28874E-02   528   0.118E+00    0.351E-01
DAV:   4    -0.608583417446E+02    0.93787E-03   -0.72178E-03   440   0.564E-01    0.109E-01
DAV:   5    -0.608584293710E+02   -0.87626E-04   -0.86190E-04   480   0.194E-01
   6 F= -.60858429E+02 E0= -.60836718E+02  d E =-.243598E-01
 trial-energy change:   -0.024360  1 .order   -0.024794   -0.103585    0.053996
 step:   0.5619(harm=  0.5651)  dis= 0.03572  next Energy=   -60.867800 (dE=-0.337E-01)
 bond charge predicted
       N       E                     dE             d eps       ncg     rms          rms(c)
DAV:   1    -0.608648113138E+02   -0.64696E-02   -0.28883E+00   384   0.107E+01    0.314E-01
DAV:   2    -0.608684780762E+02   -0.36668E-02   -0.62587E-02   480   0.161E+00    0.213E-01
DAV:   3    -0.608679813203E+02    0.49676E-03   -0.35839E-03   592   0.420E-01    0.948E-02
DAV:   4    -0.608680079427E+02   -0.26622E-04   -0.62922E-04   424   0.142E-01
   7 F= -.60868008E+02 E0= -.60847529E+02  d E =-.339384E-01
 curvature:  -0.54 expect dE=-0.247E-01 dE for cont linesearch -0.915E-07
 trial: gam= 0.45383 g(F)=  0.369E-01 g(S)=  0.871E-02 ort = 0.198E-03 (trialstep = 0.800E+00)
 search vector abs. value=  0.933E-01
 bond charge predicted
       N       E                     dE             d eps       ncg     rms          rms(c)
DAV:   1    -0.608740782466E+02   -0.60969E-02   -0.78659E+00   384   0.183E+01    0.689E-01
DAV:   2    -0.608782947927E+02   -0.42165E-02   -0.24356E-01   464   0.300E+00    0.421E-01
DAV:   3    -0.608758176908E+02    0.24771E-02   -0.12804E-02   488   0.786E-01    0.259E-01
DAV:   4    -0.608753640204E+02    0.45367E-03   -0.46265E-03   488   0.495E-01    0.783E-02
DAV:   5    -0.608753998850E+02   -0.35865E-04   -0.88820E-04   480   0.209E-01
   8 F= -.60875400E+02 E0= -.60851988E+02  d E =-.739194E-02
 trial-energy change:   -0.007392  1 .order   -0.006984   -0.036583    0.022614
 step:   0.5022(harm=  0.4945)  dis= 0.01706  next Energy=   -60.879589 (dE=-0.116E-01)
 bond charge predicted
       N       E                     dE             d eps       ncg     rms          rms(c)
DAV:   1    -0.608789987821E+02   -0.36348E-02   -0.10855E+00   384   0.684E+00    0.235E-01
DAV:   2    -0.608798579368E+02   -0.85915E-03   -0.30102E-02   448   0.108E+00    0.150E-01
DAV:   3    -0.608795913553E+02    0.26658E-03   -0.14300E-03   472   0.280E-01    0.863E-02
DAV:   4    -0.608795791934E+02    0.12162E-04   -0.71229E-04   456   0.199E-01
   9 F= -.60879579E+02 E0= -.60857199E+02  d E =-.115713E-01
 curvature:  -0.50 expect dE=-0.187E-01 dE for cont linesearch -0.230E-04
 trial: gam= 0.78548 g(F)=  0.292E-01 g(S)=  0.788E-02 ort = 0.206E-02 (trialstep = 0.706E+00)
 search vector abs. value=  0.979E-01
 bond charge predicted
       N       E                     dE             d eps       ncg     rms          rms(c)
DAV:   1    -0.609113773046E+02   -0.31786E-01   -0.56545E+00   384   0.154E+01    0.790E-01
DAV:   2    -0.609018790668E+02    0.94982E-02   -0.19892E-01   480   0.241E+00    0.446E-01
DAV:   3    -0.608981774559E+02    0.37016E-02   -0.13908E-02   456   0.759E-01    0.241E-01
DAV:   4    -0.608975310618E+02    0.64639E-03   -0.41325E-03   464   0.465E-01    0.780E-02
DAV:   5    -0.608975633908E+02   -0.32329E-04   -0.61693E-04   488   0.165E-01
  10 F= -.60897563E+02 E0= -.60875695E+02  d E =-.179842E-01
 trial-energy change:   -0.017984  1 .order   -0.018967   -0.027309   -0.010625
 step:   1.1561(harm=  1.1561)  dis= 0.03350  next Energy=   -60.901929 (dE=-0.223E-01)
 bond charge predicted
       N       E                     dE             d eps       ncg     rms          rms(c)
DAV:   1    -0.609070665393E+02   -0.95355E-02   -0.23052E+00   384   0.987E+00    0.504E-01
DAV:   2    -0.609029110182E+02    0.41555E-02   -0.78785E-02   464   0.152E+00    0.284E-01
DAV:   3    -0.609014317901E+02    0.14792E-02   -0.56937E-03   480   0.477E-01    0.152E-01
DAV:   4    -0.609012077995E+02    0.22399E-03   -0.16838E-03   480   0.291E-01    0.487E-02
DAV:   5    -0.609012635993E+02   -0.55800E-04   -0.21661E-04   368   0.101E-01
  11 F= -.60901264E+02 E0= -.60879558E+02  d E =-.216844E-01
 curvature:  -1.46 expect dE=-0.838E-01 dE for cont linesearch -0.389E-04
 trial: gam= 1.51660 g(F)=  0.320E-01 g(S)=  0.253E-01 ort = 0.161E-02 (trialstep = 0.271E+00)
 search vector abs. value=  0.287E+00
 bond charge predicted
       N       E                     dE             d eps       ncg     rms          rms(c)
DAV:   1    -0.609250800773E+02   -0.23872E-01   -0.23282E+00   384   0.100E+01    0.568E-01
DAV:   2    -0.609170367116E+02    0.80434E-02   -0.10119E-01   456   0.155E+00    0.323E-01
DAV:   3    -0.609149110827E+02    0.21256E-02   -0.68713E-03   440   0.518E-01    0.170E-01
DAV:   4    -0.609144891719E+02    0.42191E-03   -0.27781E-03   472   0.360E-01    0.491E-02
DAV:   5    -0.609145344954E+02   -0.45323E-04   -0.37106E-04   464   0.133E-01
  12 F= -.60914534E+02 E0= -.60893663E+02  d E =-.132709E-01
 trial-energy change:   -0.013271  1 .order   -0.013334   -0.016205   -0.010463
 step:   0.7656(harm=  0.7656)  dis= 0.03173  next Energy=   -60.924131 (dE=-0.229E-01)
 bond charge predicted
       N       E                     dE             d eps       ncg     rms          rms(c)
DAV:   1    -0.609602089781E+02   -0.45720E-01   -0.77587E+00   384   0.182E+01    0.107E+00
DAV:   2    -0.609328284080E+02    0.27381E-01   -0.40446E-01   464   0.291E+00    0.603E-01
DAV:   3    -0.609250690513E+02    0.77594E-02   -0.25029E-02   440   0.984E-01    0.322E-01
DAV:   4    -0.609233544105E+02    0.17146E-02   -0.93838E-03   456   0.675E-01    0.950E-02
DAV:   5    -0.609234086259E+02   -0.54215E-04   -0.13847E-03   544   0.252E-01    0.412E-02
DAV:   6    -0.609234977981E+02   -0.89172E-04   -0.23590E-04   304   0.810E-02
  13 F= -.60923498E+02 E0= -.60903762E+02  d E =-.222342E-01
 curvature:  -1.84 expect dE=-0.135E+00 dE for cont linesearch -0.197E-04
 trial: gam= 1.43101 g(F)=  0.619E-01 g(S)=  0.113E-01 ort =-0.175E-02 (trialstep = 0.162E+00)
 search vector abs. value=  0.656E+00
 bond charge predicted
       N       E                     dE             d eps       ncg     rms          rms(c)
DAV:   1    -0.609433498574E+02   -0.19941E-01   -0.19459E+00   384   0.920E+00    0.553E-01
DAV:   2    -0.609349563690E+02    0.83935E-02   -0.79066E-02   464   0.144E+00    0.314E-01
DAV:   3    -0.609326357432E+02    0.23206E-02   -0.66615E-03   416   0.496E-01    0.165E-01
DAV:   4    -0.609321891636E+02    0.44658E-03   -0.20717E-03   496   0.297E-01    0.621E-02
DAV:   5    -0.609322518625E+02   -0.62699E-04   -0.28708E-04   304   0.107E-01
  14 F= -.60932252E+02 E0= -.60913303E+02  d E =-.875406E-02
 trial-energy change:   -0.008754  1 .order   -0.008896   -0.011437   -0.006356
 step:   0.3647(harm=  0.3647)  dis= 0.02062  next Energy=   -60.936370 (dE=-0.129E-01)
 bond charge predicted
       N       E                     dE             d eps       ncg     rms          rms(c)
DAV:   1    -0.609536858290E+02   -0.21497E-01   -0.30496E+00   384   0.115E+01    0.699E-01
DAV:   2    -0.609401678793E+02    0.13518E-01   -0.12818E-01   464   0.181E+00    0.394E-01
DAV:   3    -0.609364986366E+02    0.36692E-02   -0.10562E-02   448   0.629E-01    0.208E-01
DAV:   4    -0.609357399549E+02    0.75868E-03   -0.31160E-03   448   0.366E-01    0.788E-02
DAV:   5    -0.609357970915E+02   -0.57137E-04   -0.45270E-04   456   0.129E-01
  15 F= -.60935797E+02 E0= -.60917658E+02  d E =-.122993E-01
 curvature:  -1.70 expect dE=-0.641E-01 dE for cont linesearch -0.143E-05
 trial: gam= 0.39779 g(F)=  0.285E-01 g(S)=  0.935E-02 ort = 0.744E-03 (trialstep = 0.203E+00)
 search vector abs. value=  0.142E+00
 bond charge predicted
       N       E                     dE             d eps       ncg     rms          rms(c)
DAV:   1    -0.609480526886E+02   -0.12313E-01   -0.59740E-01   384   0.530E+00    0.373E-01
DAV:   2    -0.609435989799E+02    0.44537E-02   -0.31009E-02   432   0.853E-01    0.199E-01
DAV:   3    -0.609426510909E+02    0.94789E-03   -0.25623E-03   440   0.321E-01    0.962E-02
DAV:   4    -0.609424853109E+02    0.16578E-03   -0.77855E-04   448   0.176E-01    0.329E-02
DAV:   5    -0.609425503122E+02   -0.65001E-04   -0.11929E-04   320   0.699E-02
  16 F= -.60942550E+02 E0= -.60924817E+02  d E =-.675322E-02
 ZBRENT: can't locate minimum, use default step
 trial-energy change:   -0.006753  1 .order   -0.006810   -0.007723   -0.005896
 step:   0.8101(harm=  0.8562)  dis= 0.02011  next Energy=   -60.952122 (dE=-0.163E-01)
 bond charge predicted
       N       E                     dE             d eps       ncg     rms          rms(c)
DAV:   1    -0.610033275817E+02   -0.60842E-01   -0.54095E+00   384   0.158E+01    0.115E+00
DAV:   2    -0.609630788942E+02    0.40249E-01   -0.35134E-01   448   0.259E+00    0.613E-01
DAV:   3    -0.609541602958E+02    0.89186E-02   -0.24748E-02   432   0.982E-01    0.310E-01
DAV:   4    -0.609519866875E+02    0.21736E-02   -0.77534E-03   464   0.563E-01    0.106E-01
DAV:   5    -0.609519720523E+02    0.14635E-04   -0.13195E-03   536   0.223E-01    0.380E-02
DAV:   6    -0.609520278267E+02   -0.55774E-04   -0.24039E-04   336   0.797E-02
  17 F= -.60952028E+02 E0= -.60935543E+02  d E =-.162307E-01
 curvature:  -1.59 expect dE=-0.544E-01 dE for cont linesearch -0.212E-03
 trial: gam= 0.80477 g(F)=  0.271E-01 g(S)=  0.711E-02 ort = 0.435E-02 (trialstep = 0.324E+00)
 search vector abs. value=  0.133E+00
 bond charge predicted
       N       E                     dE             d eps       ncg     rms          rms(c)
DAV:   1    -0.609768499855E+02   -0.24878E-01   -0.12831E+00   448   0.803E+00    0.631E-01
DAV:   2    -0.609634553599E+02    0.13395E-01   -0.81251E-02   448   0.125E+00    0.325E-01
DAV:   3    -0.609610279067E+02    0.24275E-02   -0.64248E-03   448   0.519E-01    0.151E-01
DAV:   4    -0.609605509952E+02    0.47691E-03   -0.19037E-03   448   0.276E-01    0.488E-02
DAV:   5    -0.609605892706E+02   -0.38275E-04   -0.26209E-04   352   0.108E-01
  18 F= -.60960589E+02 E0= -.60945519E+02  d E =-.856144E-02
 trial-energy change:   -0.008561  1 .order   -0.008552   -0.012222   -0.004883
 step:   0.5396(harm=  0.5396)  dis= 0.01076  next Energy=   -60.962205 (dE=-0.102E-01)
 bond charge predicted
       N       E                     dE             d eps       ncg     rms          rms(c)
DAV:   1    -0.609696324971E+02   -0.90815E-02   -0.57173E-01   448   0.537E+00    0.419E-01
DAV:   2    -0.609635944845E+02    0.60380E-02   -0.32800E-02   432   0.828E-01    0.215E-01
DAV:   3    -0.609625053076E+02    0.10892E-02   -0.28788E-03   448   0.349E-01    0.959E-02
DAV:   4    -0.609623441595E+02    0.16115E-03   -0.70976E-04   464   0.169E-01    0.323E-02
DAV:   5    -0.609623951689E+02   -0.51009E-04   -0.10482E-04   320   0.658E-02
  19 F= -.60962395E+02 E0= -.60948115E+02  d E =-.103673E-01
 curvature:  -0.95 expect dE=-0.369E-01 dE for cont linesearch -0.217E-05
 trial: gam= 1.26320 g(F)=  0.334E-01 g(S)=  0.525E-02 ort = 0.550E-03 (trialstep = 0.194E+00)
 search vector abs. value=  0.253E+00
 bond charge predicted
       N       E                     dE             d eps       ncg     rms          rms(c)
DAV:   1    -0.609803933840E+02   -0.18049E-01   -0.86038E-01   448   0.646E+00    0.520E-01
DAV:   2    -0.609709257041E+02    0.94677E-02   -0.43394E-02   456   0.972E-01    0.269E-01
DAV:   3    -0.609690321818E+02    0.18935E-02   -0.53528E-03   440   0.447E-01    0.118E-01
DAV:   4    -0.609687563854E+02    0.27580E-03   -0.89264E-04   456   0.189E-01    0.472E-02
DAV:   5    -0.609687825978E+02   -0.26212E-04   -0.16834E-04   320   0.748E-02
  20 F= -.60968783E+02 E0= -.60955352E+02  d E =-.638743E-02
 trial-energy change:   -0.006387  1 .order   -0.006523   -0.007616   -0.005431
 step:   0.6752(harm=  0.6752)  dis= 0.01563  next Energy=   -60.975670 (dE=-0.133E-01)
 bond charge predicted
       N       E                     dE             d eps       ncg     rms          rms(c)
DAV:   1    -0.610453642116E+02   -0.76608E-01   -0.53291E+00   384   0.160E+01    0.132E+00
DAV:   2    -0.609887699639E+02    0.56594E-01   -0.35823E-01   464   0.272E+00    0.685E-01
DAV:   3    -0.609771201875E+02    0.11650E-01   -0.33903E-02   440   0.117E+00    0.317E-01
DAV:   4    -0.609749514922E+02    0.21687E-02   -0.64989E-03   448   0.510E-01    0.126E-01
DAV:   5    -0.609747951786E+02    0.15631E-03   -0.11820E-03   480   0.195E-01    0.347E-02
DAV:   6    -0.609748856935E+02   -0.90515E-04   -0.18284E-04   320   0.731E-02
  21 F= -.60974886E+02 E0= -.60963396E+02  d E =-.124905E-01
 curvature:  -2.17 expect dE=-0.763E-01 dE for cont linesearch -0.108E-04
 trial: gam= 0.85219 g(F)=  0.277E-01 g(S)=  0.747E-02 ort = 0.112E-02 (trialstep = 0.290E+00)
 search vector abs. value=  0.221E+00
 bond charge predicted
       N       E                     dE             d eps       ncg     rms          rms(c)
DAV:   1    -0.610018705546E+02   -0.27075E-01   -0.16053E+00   384   0.871E+00    0.684E-01
DAV:   2    -0.609859869302E+02    0.15884E-01   -0.90159E-02   456   0.143E+00    0.361E-01
DAV:   3    -0.609825566472E+02    0.34303E-02   -0.80504E-03   464   0.593E-01    0.159E-01
DAV:   4    -0.609819924743E+02    0.56417E-03   -0.20006E-03   448   0.278E-01    0.555E-02
DAV:   5    -0.609820408291E+02   -0.48355E-04   -0.29952E-04   336   0.108E-01
  22 F= -.60982041E+02 E0= -.60971271E+02  d E =-.715514E-02
 trial-energy change:   -0.007155  1 .order   -0.007395   -0.010470   -0.004319
 step:   0.4936(harm=  0.4936)  dis= 0.01179  next Energy=   -60.983797 (dE=-0.891E-02)
 bond charge predicted
       N       E                     dE             d eps       ncg     rms          rms(c)
DAV:   1    -0.609933616384E+02   -0.11369E-01   -0.79723E-01   384   0.615E+00    0.480E-01
DAV:   2    -0.609853955824E+02    0.79661E-02   -0.40611E-02   432   0.101E+00    0.254E-01
DAV:   3    -0.609836077815E+02    0.17878E-02   -0.44576E-03   512   0.428E-01    0.104E-01
DAV:   4    -0.609833962936E+02    0.21149E-03   -0.77682E-04   440   0.175E-01    0.381E-02
DAV:   5    -0.609834623901E+02   -0.66096E-04   -0.12945E-04   320   0.673E-02
  23 F= -.60983462E+02 E0= -.60973087E+02  d E =-.857670E-02
 curvature:  -1.51 expect dE=-0.470E-01 dE for cont linesearch -0.328E-06
 trial: gam= 0.86385 g(F)=  0.273E-01 g(S)=  0.385E-02 ort =-0.219E-03 (trialstep = 0.331E+00)
 search vector abs. value=  0.195E+00
 bond charge predicted
       N       E                     dE             d eps       ncg     rms          rms(c)
DAV:   1    -0.610117200804E+02   -0.28324E-01   -0.18991E+00   384   0.921E+00    0.707E-01
DAV:   2    -0.609947818377E+02    0.16938E-01   -0.92235E-02   432   0.151E+00    0.382E-01
DAV:   3    -0.609907985471E+02    0.39833E-02   -0.10377E-02   496   0.642E-01    0.162E-01
DAV:   4    -0.609902579227E+02    0.54062E-03   -0.16446E-03   440   0.263E-01    0.605E-02
DAV:   5    -0.609902891907E+02   -0.31268E-04   -0.26646E-04   312   0.957E-02
  24 F= -.60990289E+02 E0= -.60981356E+02  d E =-.682680E-02
 trial-energy change:   -0.006827  1 .order   -0.007144   -0.010242   -0.004046
 step:   0.5466(harm=  0.5466)  dis= 0.01579  next Energy=   -60.991927 (dE=-0.846E-02)
 bond charge predicted
       N       E                     dE             d eps       ncg     rms          rms(c)
DAV:   1    -0.610007927735E+02   -0.10535E-01   -0.81411E-01   384   0.605E+00    0.462E-01
DAV:   2    -0.609935366051E+02    0.72562E-02   -0.35576E-02   432   0.983E-01    0.249E-01
DAV:   3    -0.609917397003E+02    0.17969E-02   -0.51571E-03   512   0.432E-01    0.974E-02
DAV:   4    -0.609915950577E+02    0.14464E-03   -0.55368E-04   448   0.153E-01    0.383E-02
DAV:   5    -0.609916533361E+02   -0.58278E-04   -0.10844E-04   328   0.572E-02
  25 F= -.60991653E+02 E0= -.60983573E+02  d E =-.819095E-02
 curvature:  -1.73 expect dE=-0.303E-01 dE for cont linesearch -0.296E-06
 trial: gam= 0.53283 g(F)=  0.122E-01 g(S)=  0.534E-02 ort = 0.183E-03 (trialstep = 0.374E+00)
 search vector abs. value=  0.732E-01
 bond charge predicted
       N       E                     dE             d eps       ncg     rms          rms(c)
DAV:   1    -0.610055180154E+02   -0.13923E-01   -0.96145E-01   384   0.632E+00    0.467E-01
DAV:   2    -0.609988292191E+02    0.66888E-02   -0.37378E-02   416   0.106E+00    0.252E-01
DAV:   3    -0.609970697714E+02    0.17594E-02   -0.62385E-03   480   0.466E-01    0.989E-02
DAV:   4    -0.609969235683E+02    0.14620E-03   -0.51173E-04   456   0.154E-01    0.415E-02
DAV:   5    -0.609969532125E+02   -0.29644E-04   -0.87619E-05   328   0.543E-02
  26 F= -.60996953E+02 E0= -.60989554E+02  d E =-.529988E-02
 trial-energy change:   -0.005300  1 .order   -0.005257   -0.006595   -0.003919
 step:   0.9213(harm=  0.9213)  dis= 0.02103  next Energy=   -60.999779 (dE=-0.813E-02)
 bond charge predicted
       N       E                     dE             d eps       ncg     rms          rms(c)
DAV:   1    -0.610187206628E+02   -0.21797E-01   -0.20701E+00   384   0.925E+00    0.690E-01
DAV:   2    -0.610041742379E+02    0.14546E-01   -0.83238E-02   440   0.156E+00    0.372E-01
DAV:   3    -0.610003699637E+02    0.38043E-02   -0.12953E-02   480   0.682E-01    0.148E-01
DAV:   4    -0.609999926356E+02    0.37733E-03   -0.10930E-03   432   0.227E-01    0.612E-02
DAV:   5    -0.609999989310E+02   -0.62955E-05   -0.18012E-04   344   0.775E-02
  27 F= -.60999999E+02 E0= -.60993538E+02  d E =-.834559E-02
 curvature:  -1.91 expect dE=-0.686E-01 dE for cont linesearch -0.853E-05
 trial: gam= 2.01898 g(F)=  0.319E-01 g(S)=  0.395E-02 ort = 0.571E-03 (trialstep = 0.105E+00)
 search vector abs. value=  0.337E+00
 bond charge predicted
       N       E                     dE             d eps       ncg     rms          rms(c)
DAV:   1    -0.610062331290E+02   -0.62405E-02   -0.34498E-01   384   0.371E+00    0.266E-01
DAV:   2    -0.610042111251E+02    0.20220E-02   -0.12660E-02   408   0.604E-01    0.142E-01
DAV:   3    -0.610036815346E+02    0.52959E-03   -0.16861E-03   472   0.247E-01    0.498E-02
DAV:   4    -0.610036684692E+02    0.13065E-04   -0.13585E-04   352   0.849E-02
  28 F= -.61003668E+02 E0= -.60997263E+02  d E =-.366954E-02
 ZBRENT: can't locate minimum, use default step
 trial-energy change:   -0.003670  1 .order   -0.003448   -0.003892   -0.003004
 step:   0.4205(harm=  0.4606)  dis= 0.02180  next Energy=   -61.008525 (dE=-0.853E-02)
 bond charge predicted
       N       E                     dE             d eps       ncg     rms          rms(c)
DAV:   1    -0.610330033482E+02   -0.29322E-01   -0.31049E+00   384   0.110E+01    0.811E-01
DAV:   2    -0.610139236391E+02    0.19080E-01   -0.13465E-01   416   0.183E+00    0.434E-01
DAV:   3    -0.610094235867E+02    0.45001E-02   -0.11923E-02   480   0.719E-01    0.176E-01
DAV:   4    -0.610087687232E+02    0.65486E-03   -0.18913E-03   448   0.301E-01    0.532E-02
DAV:   5    -0.610087860497E+02   -0.17327E-04   -0.20130E-04   328   0.102E-01
  29 F= -.61008786E+02 E0= -.61002632E+02  d E =-.878712E-02
 curvature:  -2.07 expect dE=-0.417E-01 dE for cont linesearch -0.718E-04
 trial: gam= 0.55619 g(F)=  0.184E-01 g(S)=  0.175E-02 ort = 0.342E-02 (trialstep = 0.168E+00)
 search vector abs. value=  0.128E+00
 bond charge predicted
       N       E                     dE             d eps       ncg     rms          rms(c)
DAV:   1    -0.610142341736E+02   -0.54655E-02   -0.37927E-01   384   0.383E+00    0.237E-01
DAV:   2    -0.610127893775E+02    0.14448E-02   -0.11786E-02   424   0.610E-01    0.131E-01
DAV:   3    -0.610123193866E+02    0.46999E-03   -0.16302E-03   512   0.244E-01    0.488E-02
DAV:   4    -0.610123153491E+02    0.40375E-05   -0.12470E-04   320   0.797E-02
  30 F= -.61012315E+02 E0= -.61006272E+02  d E =-.352930E-02
 ZBRENT: can't locate minimum, use default step
 trial-energy change:   -0.003529  1 .order   -0.003367   -0.003715   -0.003019
 step:   0.6729(harm=  0.8985)  dis= 0.02202  next Energy=   -61.018707 (dE=-0.992E-02)
 bond charge predicted
       N       E                     dE             d eps       ncg     rms          rms(c)
DAV:   1    -0.610362047999E+02   -0.23885E-01   -0.34124E+00   384   0.114E+01    0.725E-01
DAV:   2    -0.610226865608E+02    0.13518E-01   -0.11707E-01   440   0.185E+00    0.401E-01
DAV:   3    -0.610186342926E+02    0.40523E-02   -0.11843E-02   504   0.707E-01    0.164E-01
DAV:   4    -0.610181077055E+02    0.52659E-03   -0.14454E-03   432   0.261E-01    0.570E-02
DAV:   5    -0.610181257963E+02   -0.18091E-04   -0.15743E-04   320   0.814E-02
  31 F= -.61018126E+02 E0= -.61012505E+02  d E =-.933975E-02
 curvature:  -2.36 expect dE=-0.265E-01 dE for cont linesearch -0.564E-03
 trial: gam= 0.00000 g(F)=  0.100E-01 g(S)=  0.117E-02 ort = 0.554E-02 (trialstep = 0.269E+00)
 search vector abs. value=  0.112E-01
 bond charge predicted
       N       E                     dE             d eps       ncg     rms          rms(c)
DAV:   1    -0.610201882152E+02   -0.20805E-02   -0.91988E-02   384   0.219E+00    0.757E-02
DAV:   2    -0.610203735562E+02   -0.18534E-03   -0.26386E-03   528   0.340E-01    0.576E-02
DAV:   3    -0.610203688793E+02    0.46769E-05   -0.25858E-04   408   0.116E-01
  32 F= -.61020369E+02 E0= -.61014899E+02  d E =-.224308E-02
 trial-energy change:   -0.002243  1 .order   -0.002076   -0.003020   -0.001133
 step:   0.4307(harm=  0.4307)  dis= 0.00319  next Energy=   -61.020542 (dE=-0.242E-02)
 bond charge predicted
       N       E                     dE             d eps       ncg     rms          rms(c)
DAV:   1    -0.610207129979E+02   -0.33944E-03   -0.32919E-02   384   0.131E+00    0.508E-02
DAV:   2    -0.610207812772E+02   -0.68279E-04   -0.88079E-04   512   0.201E-01
  33 F= -.61020781E+02 E0= -.61015444E+02  d E =-.265548E-02
 curvature:  -0.22 expect dE=-0.130E-02 dE for cont linesearch -0.411E-06
 trial: gam= 0.52343 g(F)=  0.566E-02 g(S)=  0.361E-03 ort = 0.146E-03 (trialstep = 0.301E+00)
 search vector abs. value=  0.925E-02
 bond charge predicted
       N       E                     dE             d eps       ncg     rms          rms(c)
DAV:   1    -0.610221698978E+02   -0.14569E-02   -0.91787E-02   384   0.211E+00    0.613E-02
DAV:   2    -0.610223047828E+02   -0.13488E-03   -0.17774E-03   544   0.283E-01    0.416E-02
DAV:   3    -0.610223054156E+02   -0.63277E-06   -0.12896E-04   352   0.833E-02
  34 F= -.61022305E+02 E0= -.61016827E+02  d E =-.152414E-02
 trial-energy change:   -0.001524  1 .order   -0.001439   -0.001838   -0.001041
 step:   0.6957(harm=  0.6957)  dis= 0.00646  next Energy=   -61.022902 (dE=-0.212E-02)
 bond charge predicted
       N       E                     dE             d eps       ncg     rms          rms(c)
DAV:   1    -0.610228378077E+02   -0.53302E-03   -0.15545E-01   384   0.275E+00    0.774E-02
DAV:   2    -0.610230392621E+02   -0.20145E-03   -0.28276E-03   536   0.356E-01    0.535E-02
DAV:   3    -0.610230229076E+02    0.16355E-04   -0.18888E-04   368   0.101E-01
  35 F= -.61023023E+02 E0= -.61017377E+02  d E =-.224163E-02
 curvature:  -0.53 expect dE=-0.361E-02 dE for cont linesearch -0.181E-05
 trial: gam= 1.17433 g(F)=  0.535E-02 g(S)=  0.148E-02 ort =-0.178E-03 (trialstep = 0.183E+00)
 search vector abs. value=  0.192E-01
 bond charge predicted
       N       E                     dE             d eps       ncg     rms          rms(c)
DAV:   1    -0.610240610662E+02   -0.10218E-02   -0.71369E-02   384   0.178E+00    0.588E-02
DAV:   2    -0.610241338165E+02   -0.72750E-04   -0.14027E-03   544   0.244E-01    0.389E-02
DAV:   3    -0.610241256165E+02    0.82000E-05   -0.71627E-05   336   0.622E-02
  36 F= -.61024126E+02 E0= -.61018523E+02  d E =-.110271E-02
 trial-energy change:   -0.001103  1 .order   -0.001046   -0.001216   -0.000877
 step:   0.6574(harm=  0.6574)  dis= 0.00888  next Energy=   -61.025202 (dE=-0.218E-02)
 bond charge predicted
       N       E                     dE             d eps       ncg     rms          rms(c)
DAV:   1    -0.610247724979E+02   -0.63868E-03   -0.47333E-01   384   0.459E+00    0.145E-01
DAV:   2    -0.610253119405E+02   -0.53944E-03   -0.92182E-03   560   0.616E-01    0.980E-02
DAV:   3    -0.610252254083E+02    0.86532E-04   -0.48897E-04   488   0.150E-01
  37 F= -.61025225E+02 E0= -.61019646E+02  d E =-.220250E-02
 curvature:  -0.95 expect dE=-0.714E-02 dE for cont linesearch -0.154E-05
 trial: gam= 1.06707 g(F)=  0.624E-02 g(S)=  0.127E-02 ort =-0.176E-03 (trialstep = 0.184E+00)
 search vector abs. value=  0.290E-01
 bond charge predicted
       N       E                     dE             d eps       ncg     rms          rms(c)
DAV:   1    -0.610262671391E+02   -0.95520E-03   -0.10966E-01   384   0.211E+00    0.816E-02
DAV:   2    -0.610263515835E+02   -0.84444E-04   -0.25439E-03   488   0.321E-01    0.518E-02
DAV:   3    -0.610263192342E+02    0.32349E-04   -0.15053E-04   352   0.929E-02
  38 F= -.61026319E+02 E0= -.61020838E+02  d E =-.109383E-02
 trial-energy change:   -0.001094  1 .order   -0.001085   -0.001349   -0.000822
 step:   0.4714(harm=  0.4714)  dis= 0.00796  next Energy=   -61.026952 (dE=-0.173E-02)
 bond charge predicted
       N       E                     dE             d eps       ncg     rms          rms(c)
DAV:   1    -0.610269610100E+02   -0.60943E-03   -0.26773E-01   384   0.328E+00    0.123E-01
DAV:   2    -0.610271741080E+02   -0.21310E-03   -0.61536E-03   496   0.498E-01    0.784E-02
DAV:   3    -0.610270975947E+02    0.76513E-04   -0.35720E-04   448   0.137E-01
  39 F= -.61027098E+02 E0= -.61021722E+02  d E =-.187219E-02
 curvature:  -0.93 expect dE=-0.623E-02 dE for cont linesearch -0.414E-04
 trial: gam= 0.66486 g(F)=  0.549E-02 g(S)=  0.119E-02 ort = 0.113E-02 (trialstep = 0.242E+00)
 search vector abs. value=  0.210E-01
 bond charge predicted
       N       E                     dE             d eps       ncg     rms          rms(c)
DAV:   1    -0.610286909862E+02   -0.15169E-02   -0.11984E-01   384   0.211E+00    0.960E-02
DAV:   2    -0.610287165893E+02   -0.25603E-04   -0.27562E-03   496   0.324E-01    0.579E-02
DAV:   3    -0.610286565416E+02    0.60048E-04   -0.17958E-04   400   0.907E-02
  40 F= -.61028657E+02 E0= -.61023417E+02  d E =-.155895E-02
 ZBRENT: can't locate minimum, use default step
 trial-energy change:   -0.001559  1 .order   -0.001631   -0.001797   -0.001466
 step:   0.9663(harm=  1.3096)  dis= 0.01255  next Energy=   -61.031968 (dE=-0.487E-02)
 bond charge predicted
       N       E                     dE             d eps       ncg     rms          rms(c)
DAV:   1    -0.610315210493E+02   -0.28045E-02   -0.10811E+00   384   0.632E+00    0.280E-01
DAV:   2    -0.610318805973E+02   -0.35955E-03   -0.25202E-02   480   0.974E-01    0.169E-01
DAV:   3    -0.610313775507E+02    0.50305E-03   -0.16005E-03   592   0.267E-01    0.679E-02
DAV:   4    -0.610313018077E+02    0.75743E-04   -0.25149E-04   416   0.990E-02
  41 F= -.61031302E+02 E0= -.61026388E+02  d E =-.420421E-02
 curvature:  -1.66 expect dE=-0.881E-02 dE for cont linesearch -0.219E-03
 trial: gam= 0.00000 g(F)=  0.343E-02 g(S)=  0.188E-02 ort = 0.167E-02 (trialstep = 0.387E+00)
 search vector abs. value=  0.532E-02
 bond charge predicted
       N       E                     dE             d eps       ncg     rms          rms(c)
DAV:   1    -0.610325256765E+02   -0.11481E-02   -0.77968E-02   384   0.200E+00    0.105E-01
DAV:   2    -0.610325143744E+02    0.11302E-04   -0.23491E-03   544   0.329E-01    0.703E-02
DAV:   3    -0.610324197703E+02    0.94604E-04   -0.44908E-04   432   0.135E-01
  42 F= -.61032420E+02 E0= -.61027709E+02  d E =-.111796E-02
 trial-energy change:   -0.001118  1 .order   -0.001076   -0.002054   -0.000098
 step:   0.4058(harm=  0.4058)  dis= 0.00180  next Energy=   -61.032380 (dE=-0.108E-02)
 bond charge predicted
       N       E                     dE             d eps       ncg     rms          rms(c)
DAV:   1    -0.610324242972E+02    0.90077E-04   -0.29539E-04   376   0.124E-01    0.136E-02
DAV:   2    -0.610324304709E+02   -0.61737E-05   -0.24977E-05   272   0.381E-02
  43 F= -.61032430E+02 E0= -.61027750E+02  d E =-.112866E-02
 curvature:  -0.20 expect dE=-0.499E-03 dE for cont linesearch -0.200E-06
 trial: gam= 0.44941 g(F)=  0.186E-02 g(S)=  0.601E-03 ort = 0.725E-04 (trialstep = 0.390E+00)
 search vector abs. value=  0.360E-02
 reached required accuracy - stopping structural energy minimisation
 writing wavefunctions
Sun Mar  6 19:45:21 CST 2022
