Sun Mar  6 00:58:58 CST 2022
 running on   48 total cores
 distrk:  each k-point on   48 cores,    1 groups
 distr:  one band on   24 cores,    2 groups
 using from now: INCAR     
 vasp.5.3.5 31Mar14 (build Jan 11 2016 19:50:55) complex                        
  
 POSCAR found type information on POSCAR  B  C 
 POSCAR found :  2 types and       8 ions
 scaLAPACK will be used

 ----------------------------------------------------------------------------- 
|                                                                             |
|           W    W    AA    RRRRR   N    N  II  N    N   GGGG   !!!           |
|           W    W   A  A   R    R  NN   N  II  NN   N  G    G  !!!           |
|           W    W  A    A  R    R  N N  N  II  N N  N  G       !!!           |
|           W WW W  AAAAAA  RRRRR   N  N N  II  N  N N  G  GGG   !            |
|           WW  WW  A    A  R   R   N   NN  II  N   NN  G    G                |
|           W    W  A    A  R    R  N    N  II  N    N   GGGG   !!!           |
|                                                                             |
|      For optimal performance we recommend to set                            |
|        NCORE= 4 - approx SQRT( number of cores)                             |
|      NCORE specifies how many cores store one orbital (NPAR=cpu/NCORE).     |
|      This setting can  greatly improve the performance of VASP for DFT.     |
|      The default, NPAR=number of cores might be grossly inefficient         |
|      on modern multi-core architectures or massively parallel machines.     |
|      Do your own testing !!!!                                               |
|      Unfortunately you need to use the default for GW and RPA calculations. |
|      (for HF NCORE is supported but not extensively tested yet)             |
|                                                                             |
 ----------------------------------------------------------------------------- 

 LDA part: xc-table for Pade appr. of Perdew
 POSCAR, INCAR and KPOINTS ok, starting setup
 WARNING: small aliasing (wrap around) errors must be expected
 FFT: planning ...
 WAVECAR not read
 entering main loop
       N       E                     dE             d eps       ncg     rms          rms(c)
DAV:   1     0.155118080612E+03    0.15512E+03   -0.16890E+04  4480   0.173E+03
DAV:   2    -0.543030340255E+02   -0.20942E+03   -0.20289E+03  6204   0.288E+02
DAV:   3    -0.685448317853E+02   -0.14242E+02   -0.14054E+02  5340   0.781E+01
DAV:   4    -0.689083039584E+02   -0.36347E+00   -0.36224E+00  5820   0.137E+01
DAV:   5    -0.689178320350E+02   -0.95281E-02   -0.95249E-02  5760   0.207E+00    0.131E+01
DAV:   6    -0.641559542015E+02    0.47619E+01   -0.55293E+00  5204   0.126E+01    0.729E+00
DAV:   7    -0.628049097704E+02    0.13510E+01   -0.54848E+00  5260   0.122E+01    0.215E+00
DAV:   8    -0.627939574966E+02    0.10952E-01   -0.34424E-01  5212   0.344E+00    0.136E+00
DAV:   9    -0.628006368037E+02   -0.66793E-02   -0.39440E-02  5236   0.132E+00    0.320E-01
DAV:  10    -0.627976463553E+02    0.29904E-02   -0.11009E-02  5340   0.630E-01    0.895E-02
DAV:  11    -0.627981929720E+02   -0.54662E-03   -0.11118E-03  5236   0.236E-01    0.533E-02
DAV:  12    -0.627984628513E+02   -0.26988E-03   -0.27361E-04  4988   0.123E-01    0.180E-02
DAV:  13    -0.627984893333E+02   -0.26482E-04   -0.32156E-05  5484   0.455E-02    0.602E-03
DAV:  14    -0.627984925317E+02   -0.31984E-05   -0.72421E-06  5208   0.213E-02    0.288E-03
DAV:  15    -0.627984928935E+02   -0.36172E-06   -0.11163E-06  5304   0.774E-03    0.827E-04
DAV:  16    -0.627984929054E+02   -0.11935E-07   -0.12709E-07  5820   0.282E-03    0.353E-04
DAV:  17    -0.627984929212E+02   -0.15835E-07   -0.18508E-08  4108   0.118E-03    0.131E-04
DAV:  18    -0.627984929215E+02   -0.30855E-09   -0.42353E-09  3420   0.542E-04
   1 F= -.62798493E+02 E0= -.62762185E+02  d E =-.627985E+02
 curvature:   0.00 expect dE= 0.000E+00 dE for cont linesearch  0.000E+00
 trial: gam= 0.00000 g(F)=  0.444E-03 g(S)=  0.493E-03 ort = 0.000E+00 (trialstep = 0.100E+01)
 search vector abs. value=  0.937E-03
 bond charge predicted
       N       E                     dE             d eps       ncg     rms          rms(c)
DAV:   1    -0.627985174794E+02   -0.24558E-04   -0.76526E-02  4540   0.206E+00    0.126E-01
DAV:   2    -0.627983549399E+02    0.16254E-03   -0.19992E-03  5332   0.329E-01    0.746E-02
DAV:   3    -0.627982257550E+02    0.12918E-03   -0.38765E-04  5312   0.155E-01    0.166E-02
DAV:   4    -0.627982270258E+02   -0.12708E-05   -0.67715E-05  5208   0.554E-02    0.763E-03
DAV:   5    -0.627982271542E+02   -0.12844E-06   -0.43630E-06  5272   0.142E-02    0.337E-03
DAV:   6    -0.627982272408E+02   -0.86597E-07   -0.47485E-07  5640   0.468E-03    0.145E-03
DAV:   7    -0.627982272963E+02   -0.55453E-07   -0.12223E-07  5228   0.252E-03    0.554E-04
DAV:   8    -0.627982273311E+02   -0.34777E-07   -0.22020E-08  4140   0.108E-03    0.197E-04
DAV:   9    -0.627982273335E+02   -0.24575E-08   -0.28377E-09  3020   0.396E-04
   2 F= -.62798227E+02 E0= -.62762614E+02  d E =0.265588E-03
 trial-energy change:    0.000266  1 .order    0.000275   -0.000937    0.001488
 step:   0.3922(harm=  0.3864)  dis= 0.00091  next Energy=   -62.798677 (dE=-0.184E-03)
 bond charge predicted
       N       E                     dE             d eps       ncg     rms          rms(c)
DAV:   1    -0.627987890191E+02   -0.56169E-03   -0.28297E-02  4504   0.125E+00    0.761E-02
DAV:   2    -0.627987268861E+02    0.62133E-04   -0.74083E-04  5316   0.200E-01    0.453E-02
DAV:   3    -0.627986774122E+02    0.49474E-04   -0.14278E-04  5312   0.942E-02    0.102E-02
DAV:   4    -0.627986776783E+02   -0.26609E-06   -0.25250E-05  5204   0.338E-02    0.468E-03
DAV:   5    -0.627986775459E+02    0.13241E-06   -0.16454E-06  5264   0.873E-03    0.210E-03
DAV:   6    -0.627986774586E+02    0.87257E-07   -0.17864E-07  5660   0.287E-03    0.892E-04
DAV:   7    -0.627986774288E+02    0.29799E-07   -0.45908E-08  5172   0.155E-03    0.335E-04
DAV:   8    -0.627986774170E+02    0.11826E-07   -0.79633E-09  3100   0.669E-04    0.120E-04
DAV:   9    -0.627986774169E+02    0.59117E-10   -0.15019E-09  2836   0.297E-04
   3 F= -.62798677E+02 E0= -.62762639E+02  d E =-.184495E-03
 curvature:  -0.19 expect dE=-0.549E-04 dE for cont linesearch -0.466E-08
 trial: gam= 0.30812 g(F)=  0.121E-03 g(S)=  0.163E-03 ort =-0.475E-05 (trialstep = 0.878E+00)
 search vector abs. value=  0.370E-03
 bond charge predicted
       N       E                     dE             d eps       ncg     rms          rms(c)
DAV:   1    -0.627989080223E+02   -0.23061E-03   -0.16022E-02  4488   0.945E-01    0.477E-02
DAV:   2    -0.627988607918E+02    0.47230E-04   -0.23407E-04  5412   0.107E-01    0.273E-02
DAV:   3    -0.627988346888E+02    0.26103E-04   -0.68588E-05  5268   0.488E-02    0.668E-03
DAV:   4    -0.627988345903E+02    0.98519E-07   -0.43363E-06  5448   0.148E-02    0.413E-03
DAV:   5    -0.627988346076E+02   -0.17351E-07   -0.72225E-07  5308   0.553E-03    0.155E-03
DAV:   6    -0.627988346383E+02   -0.30712E-07   -0.10136E-07  5664   0.210E-03    0.562E-04
DAV:   7    -0.627988346412E+02   -0.28972E-08   -0.11785E-08  3448   0.802E-04
   4 F= -.62798835E+02 E0= -.62763018E+02  d E =-.157224E-03
 trial-energy change:   -0.000157  1 .order   -0.000159   -0.000248   -0.000069
 step:   1.2453(harm=  1.2191)  dis= 0.00116  next Energy=   -62.798849 (dE=-0.172E-03)
 bond charge predicted
       N       E                     dE             d eps       ncg     rms          rms(c)
DAV:   1    -0.627988607699E+02   -0.26132E-04   -0.27953E-03  4488   0.395E-01    0.199E-02
DAV:   2    -0.627988523064E+02    0.84635E-05   -0.40848E-05  5412   0.449E-02    0.114E-02
DAV:   3    -0.627988475846E+02    0.47218E-05   -0.12031E-05  5272   0.205E-02    0.279E-03
DAV:   4    -0.627988475721E+02    0.12474E-07   -0.76654E-07  5444   0.622E-03    0.173E-03
DAV:   5    -0.627988475711E+02    0.10170E-08   -0.12777E-07  5304   0.232E-03    0.657E-04
DAV:   6    -0.627988475714E+02   -0.32423E-09   -0.15057E-08  3388   0.889E-04
   5 F= -.62798848E+02 E0= -.62763126E+02  d E =-.170154E-03
 curvature:  -0.79 expect dE=-0.507E-03 dE for cont linesearch -0.868E-07
 trial: gam= 2.26157 g(F)=  0.460E-03 g(S)=  0.179E-03 ort =-0.636E-05 (trialstep = 0.141E+00)
 search vector abs. value=  0.250E-02
 bond charge predicted
       N       E                     dE             d eps       ncg     rms          rms(c)
DAV:   1    -0.627989355544E+02   -0.87983E-04   -0.27990E-03  4480   0.390E-01    0.241E-02
DAV:   2    -0.627989208403E+02    0.14714E-04   -0.77857E-05  5668   0.600E-02    0.124E-02
DAV:   3    -0.627989164183E+02    0.44219E-05   -0.15314E-05  5164   0.249E-02    0.551E-03
DAV:   4    -0.627989157176E+02    0.70074E-06   -0.20883E-06  5364   0.917E-03    0.239E-03
DAV:   5    -0.627989157259E+02   -0.83096E-08   -0.23244E-07  6204   0.297E-03    0.103E-03
DAV:   6    -0.627989157554E+02   -0.29497E-07   -0.40080E-08  4348   0.143E-03    0.359E-04
DAV:   7    -0.627989157656E+02   -0.10181E-07   -0.88640E-09  3216   0.711E-04    0.123E-04
DAV:   8    -0.627989157658E+02   -0.21510E-09   -0.27374E-09  2820   0.390E-04
   6 F= -.62798916E+02 E0= -.62763215E+02  d E =-.681944E-04
 trial-energy change:   -0.000068  1 .order   -0.000068   -0.000088   -0.000048
 step:   0.3130(harm=  0.3130)  dis= 0.00066  next Energy=   -62.798945 (dE=-0.978E-04)
 bond charge predicted
       N       E                     dE             d eps       ncg     rms          rms(c)
DAV:   1    -0.627989727347E+02   -0.56969E-04   -0.41987E-03  4480   0.478E-01    0.295E-02
DAV:   2    -0.627989507075E+02    0.22027E-04   -0.11675E-04  5660   0.734E-02    0.152E-02
DAV:   3    -0.627989440501E+02    0.66574E-05   -0.22943E-05  5160   0.304E-02    0.676E-03
DAV:   4    -0.627989429749E+02    0.10752E-05   -0.31337E-06  5364   0.112E-02    0.292E-03
DAV:   5    -0.627989429722E+02    0.27112E-08   -0.34719E-07  6196   0.362E-03    0.125E-03
DAV:   6    -0.627989430098E+02   -0.37571E-07   -0.61867E-08  5220   0.173E-03    0.441E-04
DAV:   7    -0.627989430224E+02   -0.12624E-07   -0.11552E-08  3308   0.796E-04    0.150E-04
DAV:   8    -0.627989430235E+02   -0.11553E-08   -0.36176E-09  2980   0.437E-04
   7 F= -.62798943E+02 E0= -.62763270E+02  d E =-.954521E-04
 curvature:  -0.63 expect dE=-0.539E-03 dE for cont linesearch -0.224E-09
 trial: gam= 1.31191 g(F)=  0.628E-03 g(S)=  0.232E-03 ort =-0.947E-06 (trialstep = 0.849E-01)
 search vector abs. value=  0.517E-02
 bond charge predicted
       N       E                     dE             d eps       ncg     rms          rms(c)
DAV:   1    -0.627990303582E+02   -0.87336E-04   -0.17269E-03  4480   0.299E-01    0.210E-02
DAV:   2    -0.627990183812E+02    0.11977E-04   -0.35491E-05  5480   0.394E-02    0.105E-02
DAV:   3    -0.627990142349E+02    0.41462E-05   -0.11409E-05  5236   0.193E-02    0.334E-03
DAV:   4    -0.627990140503E+02    0.18460E-06   -0.11867E-06  5308   0.706E-03    0.181E-03
DAV:   5    -0.627990141122E+02   -0.61855E-07   -0.18487E-07  5272   0.273E-03    0.559E-04
DAV:   6    -0.627990141320E+02   -0.19794E-07   -0.21009E-08  3444   0.999E-04    0.217E-04
DAV:   7    -0.627990141374E+02   -0.53726E-08   -0.66955E-09  3076   0.565E-04
   8 F= -.62799014E+02 E0= -.62763361E+02  d E =-.711138E-04
 ZBRENT: can't locate minimum, use default step
 trial-energy change:   -0.000071  1 .order   -0.000071   -0.000073   -0.000069
 step:   0.3395(harm=  1.4710)  dis= 0.00100  next Energy=   -62.799575 (dE=-0.632E-03)
 bond charge predicted
       N       E                     dE             d eps       ncg     rms          rms(c)
DAV:   1    -0.627993489105E+02   -0.33478E-03   -0.15567E-02  4480   0.897E-01    0.630E-02
DAV:   2    -0.627992415167E+02    0.10739E-03   -0.32074E-04  5480   0.118E-01    0.316E-02
DAV:   3    -0.627992034938E+02    0.38023E-04   -0.10290E-04  5232   0.581E-02    0.100E-02
DAV:   4    -0.627992013927E+02    0.21011E-05   -0.10747E-05  5312   0.212E-02    0.543E-03
DAV:   5    -0.627992015749E+02   -0.18224E-06   -0.16697E-06  5272   0.822E-03    0.168E-03
DAV:   6    -0.627992016531E+02   -0.78226E-07   -0.21462E-07  5920   0.300E-03    0.665E-04
DAV:   7    -0.627992016844E+02   -0.31258E-07   -0.33272E-08  4376   0.129E-03    0.185E-04
DAV:   8    -0.627992016858E+02   -0.13852E-08   -0.36181E-09  3296   0.485E-04
   9 F= -.62799202E+02 E0= -.62763611E+02  d E =-.258662E-03
 curvature:  -1.48 expect dE=-0.879E-03 dE for cont linesearch -0.125E-03
 ZBRENT: increasing intervall
 opt :   0.8486  next Energy=   -62.799464 (dE=-0.521E-03)
 bond charge predicted
       N       E                     dE             d eps       ncg     rms          rms(c)
DAV:   1    -0.628000575906E+02   -0.85591E-03   -0.62460E-02  4480   0.180E+00    0.127E-01
DAV:   2    -0.627996249282E+02    0.43266E-03   -0.12934E-03  5476   0.237E-01    0.634E-02
DAV:   3    -0.627994714404E+02    0.15349E-03   -0.41351E-04  5232   0.116E-01    0.202E-02
DAV:   4    -0.627994624639E+02    0.89765E-05   -0.43520E-05  5312   0.426E-02    0.109E-02
DAV:   5    -0.627994628109E+02   -0.34707E-06   -0.67147E-06  5276   0.165E-02    0.335E-03
DAV:   6    -0.627994630203E+02   -0.20932E-06   -0.86293E-07  5952   0.600E-03    0.133E-03
DAV:   7    -0.627994631350E+02   -0.11472E-06   -0.13880E-07  5208   0.259E-03    0.375E-04
DAV:   8    -0.627994631427E+02   -0.76877E-08   -0.12124E-08  3488   0.849E-04
  10 F= -.62799463E+02 E0= -.62764010E+02  d E =-.520119E-03
 curvature:  -3.09 expect dE=-0.266E-02 dE for cont linesearch -0.819E-04
 ZBRENT: increasing intervall
 opt :   1.8670  next Energy=   -62.799542 (dE=-0.599E-03)
 bond charge predicted
       N       E                     dE             d eps       ncg     rms          rms(c)
DAV:   1    -0.628019664945E+02   -0.25034E-02   -0.25146E-01  4480   0.360E+00    0.255E-01
DAV:   2    -0.628002062154E+02    0.17603E-02   -0.52769E-03  5468   0.476E-01    0.127E-01
DAV:   3    -0.627995846805E+02    0.62153E-03   -0.16717E-03  5228   0.234E-01    0.408E-02
DAV:   4    -0.627995469483E+02    0.37732E-04   -0.17831E-04  5316   0.859E-02    0.219E-02
DAV:   5    -0.627995475274E+02   -0.57915E-06   -0.27154E-05  5272   0.332E-02    0.669E-03
DAV:   6    -0.627995481463E+02   -0.61885E-06   -0.34852E-06  5968   0.121E-02    0.267E-03
DAV:   7    -0.627995485855E+02   -0.43926E-06   -0.55778E-07  5196   0.519E-03    0.751E-04
DAV:   8    -0.627995486261E+02   -0.40583E-07   -0.52942E-08  5128   0.170E-03    0.312E-04
DAV:   9    -0.627995486239E+02    0.22119E-08   -0.11169E-08  3364   0.855E-04
  11 F= -.62799549E+02 E0= -.62764419E+02  d E =-.605600E-03
 curvature:  -2.96 expect dE=-0.112E-01 dE for cont linesearch -0.260E-04
 ZBRENT: bracketing found
 ZBRENT: interpolating
 opt :   1.4951  next Energy=   -62.799588 (dE=-0.645E-03)
 bond charge predicted
       N       E                     dE             d eps       ncg     rms          rms(c)
DAV:   1    -0.627999128076E+02   -0.36418E-03   -0.33575E-02  4480   0.131E+00    0.930E-02
DAV:   2    -0.627996768703E+02    0.23594E-03   -0.69434E-04  5464   0.174E-01    0.467E-02
DAV:   3    -0.627995917772E+02    0.85093E-04   -0.22702E-04  5224   0.861E-02    0.146E-02
DAV:   4    -0.627995865811E+02    0.51961E-05   -0.23007E-05  5308   0.310E-02    0.800E-03
DAV:   5    -0.627995862863E+02    0.29488E-06   -0.36237E-06  5272   0.121E-02    0.245E-03
DAV:   6    -0.627995862696E+02    0.16658E-07   -0.46990E-07  5892   0.442E-03    0.974E-04
DAV:   7    -0.627995863171E+02   -0.47487E-07   -0.74232E-08  5164   0.189E-03    0.276E-04
DAV:   8    -0.627995863274E+02   -0.10315E-07   -0.66934E-09  3432   0.631E-04    0.114E-04
DAV:   9    -0.627995863338E+02   -0.63687E-08   -0.22157E-09  2972   0.355E-04
  12 F= -.62799586E+02 E0= -.62764332E+02  d E =-.643310E-03
 curvature:  -4.51 expect dE=-0.106E-01 dE for cont linesearch -0.479E-10
 trial: gam= 2.84865 g(F)=  0.198E-02 g(S)=  0.359E-03 ort =-0.234E-06 (trialstep = 0.428E-01)
 search vector abs. value=  0.443E-01
 bond charge predicted
       N       E                     dE             d eps       ncg     rms          rms(c)
DAV:   1    -0.627997277574E+02   -0.14143E-03   -0.36458E-03  4488   0.429E-01    0.337E-02
DAV:   2    -0.627996953607E+02    0.32397E-04   -0.81834E-05  5340   0.583E-02    0.159E-02
DAV:   3    -0.627996856329E+02    0.97278E-05   -0.24032E-05  5264   0.289E-02    0.589E-03
DAV:   4    -0.627996847608E+02    0.87215E-06   -0.43775E-06  5308   0.127E-02    0.276E-03
DAV:   5    -0.627996848470E+02   -0.86260E-07   -0.43150E-07  5244   0.426E-03    0.866E-04
DAV:   6    -0.627996848791E+02   -0.32085E-07   -0.62995E-08  5376   0.167E-03    0.344E-04
DAV:   7    -0.627996848855E+02   -0.63669E-08   -0.96460E-09  3260   0.710E-04
  13 F= -.62799685E+02 E0= -.62764433E+02  d E =-.985517E-04
 ZBRENT: can't locate minimum, use default step
 trial-energy change:   -0.000099  1 .order   -0.000098   -0.000100   -0.000097
 step:   0.1713(harm=  1.2237)  dis= 0.00143  next Energy=   -62.801017 (dE=-0.143E-02)
 bond charge predicted
       N       E                     dE             d eps       ncg     rms          rms(c)
DAV:   1    -0.628003461281E+02   -0.66125E-03   -0.32910E-02  4480   0.129E+00    0.101E-01
DAV:   2    -0.628000549630E+02    0.29117E-03   -0.74658E-04  5340   0.175E-01    0.477E-02
DAV:   3    -0.627999666712E+02    0.88292E-04   -0.21662E-04  5260   0.870E-02    0.178E-02
DAV:   4    -0.627999579900E+02    0.86812E-05   -0.40598E-05  5308   0.386E-02    0.829E-03
DAV:   5    -0.627999581963E+02   -0.20625E-06   -0.39158E-06  5236   0.128E-02    0.262E-03
DAV:   6    -0.627999583401E+02   -0.14386E-06   -0.58339E-07  5912   0.506E-03    0.104E-03
DAV:   7    -0.627999583968E+02   -0.56721E-07   -0.97358E-08  5200   0.210E-03    0.306E-04
DAV:   8    -0.627999584011E+02   -0.42787E-08   -0.62219E-09  3456   0.587E-04
  14 F= -.62799958E+02 E0= -.62764725E+02  d E =-.372067E-03
 curvature:  -2.38 expect dE=-0.431E-02 dE for cont linesearch -0.217E-03
 ZBRENT: increasing intervall
 opt :   0.4283  next Energy=   -62.800410 (dE=-0.823E-03)
 bond charge predicted
       N       E                     dE             d eps       ncg     rms          rms(c)
DAV:   1    -0.628019789268E+02   -0.20205E-02   -0.13253E-01  4480   0.258E+00    0.204E-01
DAV:   2    -0.628008027359E+02    0.11762E-02   -0.30729E-03  5340   0.352E-01    0.958E-02
DAV:   3    -0.628004466850E+02    0.35605E-03   -0.87357E-04  5280   0.175E-01    0.363E-02
DAV:   4    -0.628004097291E+02    0.36956E-04   -0.17065E-04  5300   0.786E-02    0.167E-02
DAV:   5    -0.628004099370E+02   -0.20788E-06   -0.15901E-05  5236   0.259E-02    0.532E-03
DAV:   6    -0.628004103586E+02   -0.42163E-06   -0.24020E-06  5892   0.103E-02    0.208E-03
DAV:   7    -0.628004105873E+02   -0.22870E-06   -0.39633E-07  5212   0.423E-03    0.627E-04
DAV:   8    -0.628004106142E+02   -0.26912E-07   -0.27652E-08  4388   0.119E-03    0.252E-04
DAV:   9    -0.628004106101E+02    0.41387E-08   -0.77168E-09  3264   0.689E-04
  15 F= -.62800411E+02 E0= -.62765246E+02  d E =-.824276E-03
 curvature:  -4.96 expect dE=-0.764E-02 dE for cont linesearch -0.251E-03
 ZBRENT: increasing intervall
 opt :   0.9422  next Energy=   -62.800917 (dE=-0.133E-02)
 bond charge predicted
       N       E                     dE             d eps       ncg     rms          rms(c)
DAV:   1    -0.628073233489E+02   -0.69127E-02   -0.53693E-01  4480   0.519E+00    0.412E-01
DAV:   2    -0.628025224922E+02    0.48009E-02   -0.12840E-02  5324   0.710E-01    0.193E-01
DAV:   3    -0.628010769095E+02    0.14456E-02   -0.35588E-03  5288   0.354E-01    0.746E-02
DAV:   4    -0.628009172379E+02    0.15967E-03   -0.74203E-04  5300   0.162E-01    0.337E-02
DAV:   5    -0.628009165731E+02    0.66478E-06   -0.65354E-05  5236   0.526E-02    0.109E-02
DAV:   6    -0.628009178968E+02   -0.13237E-05   -0.10079E-05  5888   0.211E-02    0.419E-03
DAV:   7    -0.628009188090E+02   -0.91221E-06   -0.16286E-06  5224   0.856E-03    0.131E-03
DAV:   8    -0.628009189447E+02   -0.13574E-06   -0.12279E-07  5400   0.246E-03    0.516E-04
DAV:   9    -0.628009189480E+02   -0.32242E-08   -0.26775E-08  4148   0.120E-03
  16 F= -.62800919E+02 E0= -.62766018E+02  d E =-.133261E-02
 curvature: -10.02 expect dE=-0.290E-01 dE for cont linesearch -0.400E-04
 trial: gam= 1.04044 g(F)=  0.207E-02 g(S)=  0.828E-03 ort = 0.420E-03 (trialstep = 0.191E+00)
 search vector abs. value=  0.517E-01
 bond charge predicted
       N       E                     dE             d eps       ncg     rms          rms(c)
DAV:   1    -0.628025196919E+02   -0.16007E-02   -0.87512E-02  4480   0.209E+00    0.166E-01
DAV:   2    -0.628016878352E+02    0.83186E-03   -0.19682E-03  5304   0.293E-01    0.822E-02
DAV:   3    -0.628014122663E+02    0.27557E-03   -0.96363E-04  5248   0.178E-01    0.229E-02
DAV:   4    -0.628014046048E+02    0.76615E-05   -0.65927E-05  5212   0.571E-02    0.148E-02
DAV:   5    -0.628014043931E+02    0.21163E-06   -0.13176E-05  5280   0.231E-02    0.627E-03
DAV:   6    -0.628014047341E+02   -0.34100E-06   -0.23170E-06  5924   0.103E-02    0.216E-03
DAV:   7    -0.628014050173E+02   -0.28313E-06   -0.42194E-07  5212   0.478E-03    0.992E-04
DAV:   8    -0.628014050648E+02   -0.47475E-07   -0.83865E-08  5312   0.196E-03    0.350E-04
DAV:   9    -0.628014050714E+02   -0.66741E-08   -0.10813E-08  3400   0.824E-04
  17 F= -.62801405E+02 E0= -.62766682E+02  d E =-.486123E-03
 trial-energy change:   -0.000486  1 .order   -0.000487   -0.000636   -0.000338
 step:   0.4066(harm=  0.4066)  dis= 0.00326  next Energy=   -62.801597 (dE=-0.678E-03)
 bond charge predicted
       N       E                     dE             d eps       ncg     rms          rms(c)
DAV:   1    -0.628030380692E+02   -0.16330E-02   -0.11286E-01  4480   0.237E+00    0.189E-01
DAV:   2    -0.628019616469E+02    0.10764E-02   -0.25409E-03  5300   0.332E-01    0.934E-02
DAV:   3    -0.628016043121E+02    0.35733E-03   -0.12469E-03  5244   0.202E-01    0.260E-02
DAV:   4    -0.628015944903E+02    0.98217E-05   -0.84828E-05  5200   0.647E-02    0.167E-02
DAV:   5    -0.628015941679E+02    0.32241E-06   -0.16917E-05  5276   0.261E-02    0.709E-03
DAV:   6    -0.628015945909E+02   -0.42299E-06   -0.29627E-06  5932   0.117E-02    0.243E-03
DAV:   7    -0.628015949458E+02   -0.35486E-06   -0.53477E-07  5216   0.537E-03    0.112E-03
DAV:   8    -0.628015950073E+02   -0.61548E-07   -0.10663E-07  5316   0.221E-03    0.392E-04
DAV:   9    -0.628015950157E+02   -0.83382E-08   -0.13773E-08  3428   0.929E-04
  18 F= -.62801595E+02 E0= -.62767085E+02  d E =-.676068E-03
 curvature:  -3.15 expect dE=-0.137E-01 dE for cont linesearch -0.166E-07
 trial: gam= 1.68848 g(F)=  0.414E-02 g(S)=  0.209E-03 ort =-0.165E-04 (trialstep = 0.797E-01)
 search vector abs. value=  0.152E+00
 bond charge predicted
       N       E                     dE             d eps       ncg     rms          rms(c)
DAV:   1    -0.628024552949E+02   -0.86029E-03   -0.43039E-02  4480   0.146E+00    0.116E-01
DAV:   2    -0.628020469102E+02    0.40838E-03   -0.92300E-04  5296   0.198E-01    0.579E-02
DAV:   3    -0.628019052174E+02    0.14169E-03   -0.45355E-04  5200   0.122E-01    0.154E-02
DAV:   4    -0.628019019463E+02    0.32711E-05   -0.28399E-05  5236   0.374E-02    0.101E-02
DAV:   5    -0.628019018354E+02    0.11088E-06   -0.68510E-06  5284   0.165E-02    0.341E-03
DAV:   6    -0.628019020240E+02   -0.18860E-06   -0.82825E-07  6040   0.626E-03    0.138E-03
DAV:   7    -0.628019021248E+02   -0.10074E-06   -0.15348E-07  5180   0.262E-03    0.561E-04
DAV:   8    -0.628019021422E+02   -0.17398E-07   -0.24510E-08  4204   0.109E-03    0.112E-04
DAV:   9    -0.628019021420E+02    0.19986E-09   -0.22262E-09  3084   0.385E-04
  19 F= -.62801902E+02 E0= -.62767514E+02  d E =-.307126E-03
 ZBRENT: can't locate minimum, use default step
 trial-energy change:   -0.000307  1 .order   -0.000308   -0.000344   -0.000271
 step:   0.3189(harm=  0.3753)  dis= 0.00399  next Energy=   -62.802406 (dE=-0.811E-03)
 bond charge predicted
       N       E                     dE             d eps       ncg     rms          rms(c)
DAV:   1    -0.628074199607E+02   -0.55178E-02   -0.39125E-01  4480   0.440E+00    0.351E-01
DAV:   2    -0.628037097855E+02    0.37102E-02   -0.84360E-03  5292   0.595E-01    0.175E-01
DAV:   3    -0.628024199393E+02    0.12898E-02   -0.41057E-03  5188   0.367E-01    0.467E-02
DAV:   4    -0.628023877326E+02    0.32207E-04   -0.26240E-04  5236   0.113E-01    0.305E-02
DAV:   5    -0.628023851856E+02    0.25470E-05   -0.62359E-05  5272   0.497E-02    0.102E-02
DAV:   6    -0.628023863203E+02   -0.11347E-05   -0.74459E-06  6032   0.188E-02    0.414E-03
DAV:   7    -0.628023871231E+02   -0.80282E-06   -0.14137E-06  5176   0.793E-03    0.167E-03
DAV:   8    -0.628023872998E+02   -0.17670E-06   -0.22398E-07  5380   0.322E-03    0.357E-04
DAV:   9    -0.628023873050E+02   -0.51459E-08   -0.14947E-08  3512   0.964E-04
  20 F= -.62802387E+02 E0= -.62768399E+02  d E =-.792289E-03
 curvature:  -6.34 expect dE=-0.228E-01 dE for cont linesearch -0.154E-04
 trial: gam= 0.40473 g(F)=  0.322E-02 g(S)=  0.378E-03 ort = 0.607E-03 (trialstep = 0.128E+00)
 search vector abs. value=  0.289E-01
 bond charge predicted
       N       E                     dE             d eps       ncg     rms          rms(c)
DAV:   1    -0.628030607882E+02   -0.67349E-03   -0.21777E-02  4488   0.105E+00    0.775E-02
DAV:   2    -0.628028839455E+02    0.17684E-03   -0.47042E-04  5356   0.148E-01    0.406E-02
DAV:   3    -0.628028198035E+02    0.64142E-04   -0.24832E-04  5128   0.877E-02    0.105E-02
DAV:   4    -0.628028188132E+02    0.99035E-06   -0.11921E-05  5284   0.238E-02    0.610E-03
DAV:   5    -0.628028188598E+02   -0.46688E-07   -0.20686E-06  5540   0.924E-03    0.235E-03
DAV:   6    -0.628028190063E+02   -0.14643E-06   -0.26871E-07  5664   0.372E-03    0.101E-03
DAV:   7    -0.628028190865E+02   -0.80179E-07   -0.75914E-08  5084   0.188E-03    0.426E-04
DAV:   8    -0.628028190949E+02   -0.84617E-08   -0.11152E-08  3344   0.778E-04
  21 F= -.62802819E+02 E0= -.62768966E+02  d E =-.431790E-03
 trial-energy change:   -0.000432  1 .order   -0.000431   -0.000491   -0.000371
 step:   0.4609(harm=  0.5224)  dis= 0.00219  next Energy=   -62.803322 (dE=-0.935E-03)
 bond charge predicted
       N       E                     dE             d eps       ncg     rms          rms(c)
DAV:   1    -0.628050480914E+02   -0.22290E-02   -0.14960E-01  4480   0.276E+00    0.203E-01
DAV:   2    -0.628038309803E+02    0.12171E-02   -0.32325E-03  5332   0.386E-01    0.106E-01
DAV:   3    -0.628033869759E+02    0.44400E-03   -0.17052E-03  5124   0.230E-01    0.276E-02
DAV:   4    -0.628033791635E+02    0.78124E-05   -0.81485E-05  5292   0.622E-02    0.160E-02
DAV:   5    -0.628033786939E+02    0.46961E-06   -0.14319E-05  5572   0.243E-02    0.612E-03
DAV:   6    -0.628033793522E+02   -0.65830E-06   -0.18482E-06  5668   0.976E-03    0.263E-03
DAV:   7    -0.628033797614E+02   -0.40926E-06   -0.51828E-07  5088   0.492E-03    0.111E-03
DAV:   8    -0.628033798276E+02   -0.66212E-07   -0.84737E-08  5364   0.203E-03    0.397E-04
DAV:   9    -0.628033798385E+02   -0.10898E-07   -0.14015E-08  3736   0.882E-04    0.128E-04
DAV:  10    -0.628033798368E+02    0.17117E-08   -0.29131E-09  3112   0.424E-04
  22 F= -.62803380E+02 E0= -.62769888E+02  d E =-.992532E-03
 curvature:  -1.92 expect dE=-0.771E-02 dE for cont linesearch -0.127E-04
 trial: gam= 1.10232 g(F)=  0.384E-02 g(S)=  0.181E-03 ort = 0.437E-03 (trialstep = 0.140E+00)
 search vector abs. value=  0.401E-01
 bond charge predicted
       N       E                     dE             d eps       ncg     rms          rms(c)
DAV:   1    -0.628042869882E+02   -0.90715E-03   -0.41525E-02  4496   0.146E+00    0.105E-01
DAV:   2    -0.628039592716E+02    0.32772E-03   -0.10260E-03  5340   0.219E-01    0.555E-02
DAV:   3    -0.628038416072E+02    0.11766E-03   -0.41326E-04  5180   0.115E-01    0.136E-02
DAV:   4    -0.628038402823E+02    0.13250E-05   -0.17591E-05  5504   0.294E-02    0.796E-03
DAV:   5    -0.628038402388E+02    0.43461E-07   -0.34319E-06  5812   0.119E-02    0.292E-03
DAV:   6    -0.628038403815E+02   -0.14274E-06   -0.52533E-07  5648   0.474E-03    0.130E-03
DAV:   7    -0.628038404916E+02   -0.11009E-06   -0.12762E-07  5136   0.247E-03    0.528E-04
DAV:   8    -0.628038405026E+02   -0.10999E-07   -0.20011E-08  3612   0.102E-03    0.202E-04
DAV:   9    -0.628038405050E+02   -0.23665E-08   -0.48386E-09  3112   0.507E-04
  23 F= -.62803841E+02 E0= -.62770565E+02  d E =-.460668E-03
 trial-energy change:   -0.000461  1 .order   -0.000460   -0.000631   -0.000290
 step:   0.2594(harm=  0.2594)  dis= 0.00134  next Energy=   -62.803964 (dE=-0.584E-03)
 bond charge predicted
       N       E                     dE             d eps       ncg     rms          rms(c)
DAV:   1    -0.628042920046E+02   -0.45150E-03   -0.30320E-02  4496   0.125E+00    0.894E-02
DAV:   2    -0.628040518183E+02    0.24019E-03   -0.74771E-04  5340   0.187E-01    0.474E-02
DAV:   3    -0.628039655424E+02    0.86276E-04   -0.30342E-04  5180   0.986E-02    0.115E-02
DAV:   4    -0.628039646574E+02    0.88503E-06   -0.12793E-05  5496   0.251E-02    0.678E-03
DAV:   5    -0.628039646547E+02    0.27244E-08   -0.24887E-06  5800   0.101E-02    0.247E-03
DAV:   6    -0.628039647666E+02   -0.11197E-06   -0.37281E-07  5640   0.400E-03    0.110E-03
DAV:   7    -0.628039648503E+02   -0.83631E-07   -0.91707E-08  5120   0.209E-03    0.450E-04
DAV:   8    -0.628039648579E+02   -0.76495E-08   -0.14237E-08  3324   0.867E-04
  24 F= -.62803965E+02 E0= -.62770875E+02  d E =-.585021E-03
 curvature:  -1.16 expect dE=-0.326E-02 dE for cont linesearch -0.949E-09
 trial: gam= 0.84904 g(F)=  0.257E-02 g(S)=  0.252E-03 ort = 0.574E-05 (trialstep = 0.164E+00)
 search vector abs. value=  0.318E-01
 bond charge predicted
       N       E                     dE             d eps       ncg     rms          rms(c)
DAV:   1    -0.628048077076E+02   -0.84286E-03   -0.42210E-02  4488   0.146E+00    0.105E-01
DAV:   2    -0.628044873433E+02    0.32036E-03   -0.83700E-04  5316   0.195E-01    0.544E-02
DAV:   3    -0.628043662037E+02    0.12114E-03   -0.42536E-04  5180   0.115E-01    0.143E-02
DAV:   4    -0.628043644366E+02    0.17671E-05   -0.20152E-05  5252   0.311E-02    0.887E-03
DAV:   5    -0.628043643891E+02    0.47504E-07   -0.41672E-06  5400   0.130E-02    0.325E-03
DAV:   6    -0.628043645721E+02   -0.18293E-06   -0.61703E-07  5636   0.567E-03    0.131E-03
DAV:   7    -0.628043646970E+02   -0.12493E-06   -0.13872E-07  5096   0.252E-03    0.606E-04
DAV:   8    -0.628043647125E+02   -0.15504E-07   -0.23298E-08  4052   0.114E-03    0.172E-04
DAV:   9    -0.628043647143E+02   -0.18042E-08   -0.51101E-09  3172   0.545E-04
  25 F= -.62804365E+02 E0= -.62771404E+02  d E =-.399856E-03
 trial-energy change:   -0.000400  1 .order   -0.000399   -0.000462   -0.000335
 step:   0.5435(harm=  0.5969)  dis= 0.00278  next Energy=   -62.804764 (dE=-0.800E-03)
 bond charge predicted
       N       E                     dE             d eps       ncg     rms          rms(c)
DAV:   1    -0.628072024876E+02   -0.28378E-02   -0.22788E-01  4480   0.340E+00    0.244E-01
DAV:   2    -0.628054671532E+02    0.17353E-02   -0.45187E-03  5292   0.453E-01    0.127E-01
DAV:   3    -0.628048099588E+02    0.65719E-03   -0.22983E-03  5176   0.267E-01    0.333E-02
DAV:   4    -0.628047997085E+02    0.10250E-04   -0.10811E-04  5248   0.720E-02    0.206E-02
DAV:   5    -0.628047987968E+02    0.91173E-06   -0.22407E-05  5396   0.301E-02    0.749E-03
DAV:   6    -0.628047995111E+02   -0.71438E-06   -0.32884E-06  5644   0.131E-02    0.301E-03
DAV:   7    -0.628048000797E+02   -0.56859E-06   -0.74043E-07  5116   0.582E-03    0.140E-03
DAV:   8    -0.628048001805E+02   -0.10078E-06   -0.13139E-07  5456   0.264E-03    0.401E-04
DAV:   9    -0.628048001931E+02   -0.12574E-07   -0.22821E-08  3988   0.117E-03    0.163E-04
DAV:  10    -0.628048001925E+02    0.54001E-09   -0.54041E-09  3208   0.575E-04
  26 F= -.62804800E+02 E0= -.62772149E+02  d E =-.835335E-03
 curvature:  -3.31 expect dE=-0.107E-01 dE for cont linesearch -0.608E-05
 trial: gam= 0.79755 g(F)=  0.305E-02 g(S)=  0.165E-03 ort = 0.242E-03 (trialstep = 0.240E+00)
 search vector abs. value=  0.238E-01
 bond charge predicted
       N       E                     dE             d eps       ncg     rms          rms(c)
DAV:   1    -0.628060794625E+02   -0.12793E-02   -0.72634E-02  4488   0.193E+00    0.139E-01
DAV:   2    -0.628055625965E+02    0.51687E-03   -0.17846E-03  5492   0.277E-01    0.691E-02
DAV:   3    -0.628053858782E+02    0.17672E-03   -0.43777E-04  5200   0.129E-01    0.271E-02
DAV:   4    -0.628053643315E+02    0.21547E-04   -0.86220E-05  5352   0.562E-02    0.113E-02
DAV:   5    -0.628053640609E+02    0.27062E-06   -0.71028E-06  5360   0.170E-02    0.476E-03
DAV:   6    -0.628053643509E+02   -0.28996E-06   -0.11943E-06  5908   0.745E-03    0.165E-03
DAV:   7    -0.628053645018E+02   -0.15093E-06   -0.18143E-07  5320   0.287E-03    0.656E-04
DAV:   8    -0.628053645309E+02   -0.29143E-07   -0.32498E-08  4220   0.126E-03    0.268E-04
DAV:   9    -0.628053645311E+02   -0.14552E-09   -0.73388E-09  3276   0.667E-04
  27 F= -.62805365E+02 E0= -.62772688E+02  d E =-.564339E-03
 trial-energy change:   -0.000564  1 .order   -0.000563   -0.000818   -0.000308
 step:   0.3849(harm=  0.3849)  dis= 0.00167  next Energy=   -62.805457 (dE=-0.657E-03)
 bond charge predicted
       N       E                     dE             d eps       ncg     rms          rms(c)
DAV:   1    -0.628057210531E+02   -0.35652E-03   -0.26659E-02  4488   0.117E+00    0.845E-02
DAV:   2    -0.628055301322E+02    0.19092E-03   -0.65390E-04  5496   0.168E-01    0.419E-02
DAV:   3    -0.628054650441E+02    0.65088E-04   -0.16104E-04  5212   0.780E-02    0.164E-02
DAV:   4    -0.628054571510E+02    0.78931E-05   -0.31683E-05  5356   0.341E-02    0.683E-03
DAV:   5    -0.628054571102E+02    0.40767E-07   -0.25988E-06  5372   0.103E-02    0.288E-03
DAV:   6    -0.628054572390E+02   -0.12871E-06   -0.43950E-07  5912   0.452E-03    0.995E-04
DAV:   7    -0.628054572967E+02   -0.57755E-07   -0.66219E-08  5180   0.173E-03    0.397E-04
DAV:   8    -0.628054573071E+02   -0.10418E-07   -0.11326E-08  3340   0.759E-04    0.160E-04
DAV:   9    -0.628054573058E+02    0.13501E-08   -0.33936E-09  3032   0.423E-04
  28 F= -.62805457E+02 E0= -.62772770E+02  d E =-.657113E-03
 curvature:  -1.34 expect dE=-0.718E-02 dE for cont linesearch -0.549E-08
 trial: gam= 1.74886 g(F)=  0.520E-02 g(S)=  0.149E-03 ort =-0.986E-05 (trialstep = 0.819E-01)
 search vector abs. value=  0.781E-01
 bond charge predicted
       N       E                     dE             d eps       ncg     rms          rms(c)
DAV:   1    -0.628061128520E+02   -0.65554E-03   -0.26872E-02  4480   0.117E+00    0.857E-02
DAV:   2    -0.628059124852E+02    0.20037E-03   -0.56132E-04  5356   0.156E-01    0.427E-02
DAV:   3    -0.628058395809E+02    0.72904E-04   -0.19022E-04  5320   0.816E-02    0.133E-02
DAV:   4    -0.628058351336E+02    0.44473E-05   -0.23871E-05  5224   0.322E-02    0.696E-03
DAV:   5    -0.628058351351E+02   -0.14791E-08   -0.28237E-06  5484   0.110E-02    0.312E-03
DAV:   6    -0.628058352563E+02   -0.12121E-06   -0.54288E-07  5864   0.501E-03    0.100E-03
DAV:   7    -0.628058353228E+02   -0.66526E-07   -0.80449E-08  5144   0.205E-03    0.497E-04
DAV:   8    -0.628058353331E+02   -0.10258E-07   -0.18507E-08  3752   0.945E-04    0.145E-04
DAV:   9    -0.628058353347E+02   -0.16066E-08   -0.34124E-09  3044   0.452E-04
  29 F= -.62805835E+02 E0= -.62773140E+02  d E =-.378029E-03
 trial-energy change:   -0.000378  1 .order   -0.000380   -0.000437   -0.000323
 step:   0.3153(harm=  0.3153)  dis= 0.00227  next Energy=   -62.806298 (dE=-0.840E-03)
 bond charge predicted
       N       E                     dE             d eps       ncg     rms          rms(c)
DAV:   1    -0.628085537100E+02   -0.27184E-02   -0.21883E-01  4480   0.335E+00    0.245E-01
DAV:   2    -0.628069214430E+02    0.16323E-02   -0.45241E-03  5348   0.444E-01    0.122E-01
DAV:   3    -0.628063278715E+02    0.59357E-03   -0.15488E-03  5324   0.233E-01    0.383E-02
DAV:   4    -0.628062905582E+02    0.37313E-04   -0.19407E-04  5232   0.923E-02    0.199E-02
DAV:   5    -0.628062900081E+02    0.55012E-06   -0.22988E-05  5476   0.314E-02    0.890E-03
DAV:   6    -0.628062907912E+02   -0.78319E-06   -0.44158E-06  5876   0.143E-02    0.284E-03
DAV:   7    -0.628062912674E+02   -0.47617E-06   -0.64610E-07  5160   0.580E-03    0.141E-03
DAV:   8    -0.628062913730E+02   -0.10557E-06   -0.16499E-07  5324   0.269E-03    0.443E-04
DAV:   9    -0.628062913830E+02   -0.10028E-07   -0.20070E-08  3508   0.111E-03    0.156E-04
DAV:  10    -0.628062913858E+02   -0.27539E-08   -0.83337E-09  3132   0.635E-04
  30 F= -.62806291E+02 E0= -.62773589E+02  d E =-.834080E-03
 curvature:  -2.31 expect dE=-0.604E-02 dE for cont linesearch -0.726E-08
 trial: gam= 0.37923 g(F)=  0.222E-02 g(S)=  0.397E-03 ort =-0.157E-04 (trialstep = 0.129E+00)
 search vector abs. value=  0.138E-01
 bond charge predicted
       N       E                     dE             d eps       ncg     rms          rms(c)
DAV:   1    -0.628066853800E+02   -0.39400E-03   -0.11889E-02  4480   0.794E-01    0.541E-02
DAV:   2    -0.628066115305E+02    0.73850E-04   -0.26586E-04  5524   0.110E-01    0.280E-02
DAV:   3    -0.628065832954E+02    0.28235E-04   -0.85067E-05  5256   0.535E-02    0.784E-03
DAV:   4    -0.628065821043E+02    0.11911E-05   -0.73785E-06  5288   0.187E-02    0.435E-03
DAV:   5    -0.628065821758E+02   -0.71504E-07   -0.11601E-06  5360   0.685E-03    0.214E-03
DAV:   6    -0.628065822633E+02   -0.87540E-07   -0.19812E-07  5968   0.302E-03    0.760E-04
DAV:   7    -0.628065823074E+02   -0.44125E-07   -0.45056E-08  5144   0.152E-03    0.287E-04
DAV:   8    -0.628065823106E+02   -0.31559E-08   -0.73743E-09  3188   0.619E-04
  31 F= -.62806582E+02 E0= -.62773881E+02  d E =-.290925E-03
 trial-energy change:   -0.000291  1 .order   -0.000291   -0.000335   -0.000247
 step:   0.4883(harm=  0.4883)  dis= 0.00211  next Energy=   -62.806928 (dE=-0.637E-03)
 bond charge predicted
       N       E                     dE             d eps       ncg     rms          rms(c)
DAV:   1    -0.628077397065E+02   -0.11574E-02   -0.93290E-02  4480   0.223E+00    0.152E-01
DAV:   2    -0.628071587719E+02    0.58093E-03   -0.20808E-03  5520   0.308E-01    0.785E-02
DAV:   3    -0.628069360235E+02    0.22275E-03   -0.66710E-04  5256   0.150E-01    0.220E-02
DAV:   4    -0.628069259450E+02    0.10078E-04   -0.57532E-05  5284   0.524E-02    0.122E-02
DAV:   5    -0.628069260144E+02   -0.69416E-07   -0.90322E-06  5352   0.191E-02    0.599E-03
DAV:   6    -0.628069264244E+02   -0.41004E-06   -0.15447E-06  5996   0.843E-03    0.211E-03
DAV:   7    -0.628069266632E+02   -0.23872E-06   -0.34532E-07  5208   0.421E-03    0.801E-04
DAV:   8    -0.628069266970E+02   -0.33885E-07   -0.65834E-08  5216   0.172E-03    0.345E-04
DAV:   9    -0.628069267031E+02   -0.60261E-08   -0.79625E-09  3348   0.703E-04
  32 F= -.62806927E+02 E0= -.62774240E+02  d E =-.635317E-03
 curvature:  -1.30 expect dE=-0.571E-02 dE for cont linesearch -0.404E-08
 trial: gam= 1.68973 g(F)=  0.414E-02 g(S)=  0.271E-03 ort =-0.656E-05 (trialstep = 0.632E-01)
 search vector abs. value=  0.439E-01
 bond charge predicted
       N       E                     dE             d eps       ncg     rms          rms(c)
DAV:   1    -0.628072423418E+02   -0.31564E-03   -0.87301E-03  4480   0.681E-01    0.462E-02
DAV:   2    -0.628071902608E+02    0.52081E-04   -0.21488E-04  5692   0.991E-02    0.235E-02
DAV:   3    -0.628071735734E+02    0.16687E-04   -0.45305E-05  5248   0.411E-02    0.960E-03
DAV:   4    -0.628071712712E+02    0.23023E-05   -0.87906E-06  5356   0.180E-02    0.357E-03
DAV:   5    -0.628071713511E+02   -0.79968E-07   -0.65131E-07  5568   0.518E-03    0.162E-03
DAV:   6    -0.628071714507E+02   -0.99517E-07   -0.11708E-07  5824   0.233E-03    0.524E-04
DAV:   7    -0.628071714712E+02   -0.20517E-07   -0.14747E-08  3412   0.874E-04    0.188E-04
DAV:   8    -0.628071714752E+02   -0.40693E-08   -0.40818E-09  3116   0.473E-04
  33 F= -.62807171E+02 E0= -.62774472E+02  d E =-.244772E-03
 trial-energy change:   -0.000245  1 .order   -0.000242   -0.000278   -0.000206
 step:   0.1718(harm=  0.2430)  dis= 0.00140  next Energy=   -62.807363 (dE=-0.436E-03)
 bond charge predicted
       N       E                     dE             d eps       ncg     rms          rms(c)
DAV:   1    -0.628076292460E+02   -0.45777E-03   -0.25781E-02  4480   0.117E+00    0.795E-02
DAV:   2    -0.628074748176E+02    0.15443E-03   -0.63455E-04  5684   0.170E-01    0.403E-02
DAV:   3    -0.628074250571E+02    0.49761E-04   -0.13406E-04  5244   0.707E-02    0.165E-02
DAV:   4    -0.628074178651E+02    0.71920E-05   -0.26030E-05  5356   0.311E-02    0.614E-03
DAV:   5    -0.628074179452E+02   -0.80087E-07   -0.19272E-06  5564   0.890E-03    0.278E-03
DAV:   6    -0.628074181498E+02   -0.20465E-06   -0.34546E-07  5816   0.400E-03    0.900E-04
DAV:   7    -0.628074182011E+02   -0.51215E-07   -0.49075E-08  4800   0.150E-03    0.335E-04
DAV:   8    -0.628074182115E+02   -0.10399E-07   -0.99787E-09  3340   0.735E-04    0.131E-04
DAV:   9    -0.628074182087E+02    0.27055E-08   -0.24455E-09  2968   0.365E-04
  34 F= -.62807418E+02 E0= -.62774698E+02  d E =-.491506E-03
 curvature:  -1.02 expect dE=-0.144E-02 dE for cont linesearch -0.378E-04
 ZBRENT: increasing intervall
 opt :   0.3889  next Energy=   -62.807265 (dE=-0.338E-03)
 bond charge predicted
       N       E                     dE             d eps       ncg     rms          rms(c)
DAV:   1    -0.628081176661E+02   -0.69945E-03   -0.10344E-01  4480   0.235E+00    0.160E-01
DAV:   2    -0.628074933334E+02    0.62433E-03   -0.25475E-03  5672   0.342E-01    0.809E-02
DAV:   3    -0.628072920702E+02    0.20126E-03   -0.54051E-04  5256   0.142E-01    0.333E-02
DAV:   4    -0.628072618099E+02    0.30260E-04   -0.10481E-04  5356   0.624E-02    0.123E-02
DAV:   5    -0.628072616815E+02    0.12846E-06   -0.77712E-06  5600   0.179E-02    0.558E-03
DAV:   6    -0.628072622476E+02   -0.56615E-06   -0.13788E-06  5796   0.800E-03    0.180E-03
DAV:   7    -0.628072624268E+02   -0.17923E-06   -0.20197E-07  5376   0.301E-03    0.678E-04
DAV:   8    -0.628072624636E+02   -0.36742E-07   -0.42559E-08  4300   0.145E-03    0.274E-04
DAV:   9    -0.628072624612E+02    0.23376E-08   -0.81627E-09  3248   0.704E-04
  35 F= -.62807262E+02 E0= -.62774508E+02  d E =-.335758E-03
 curvature:   4.15 expect dE= 0.290E-01 dE for cont linesearch  0.706E-03
 ZBRENT: bracketing found
 ZBRENT: interpolating
 opt :   0.2408  next Energy=   -62.807462 (dE=-0.535E-03)
 bond charge predicted
       N       E                     dE             d eps       ncg     rms          rms(c)
DAV:   1    -0.628078654997E+02   -0.60304E-03   -0.48102E-02  4480   0.160E+00    0.109E-01
DAV:   2    -0.628075741321E+02    0.29137E-03   -0.11862E-03  5668   0.233E-01    0.552E-02
DAV:   3    -0.628074782220E+02    0.95910E-04   -0.25169E-04  5228   0.968E-02    0.226E-02
DAV:   4    -0.628074632646E+02    0.14957E-04   -0.48627E-05  5352   0.424E-02    0.837E-03
DAV:   5    -0.628074627206E+02    0.54404E-06   -0.35528E-06  5544   0.121E-02    0.381E-03
DAV:   6    -0.628074627028E+02    0.17801E-07   -0.64948E-07  5840   0.548E-03    0.122E-03
DAV:   7    -0.628074627553E+02   -0.52551E-07   -0.92892E-08  5308   0.204E-03    0.459E-04
DAV:   8    -0.628074627685E+02   -0.13145E-07   -0.18807E-08  3648   0.980E-04    0.184E-04
DAV:   9    -0.628074627764E+02   -0.79251E-08   -0.43235E-09  3116   0.488E-04
  36 F= -.62807463E+02 E0= -.62774731E+02  d E =-.536073E-03
 curvature:  -0.26 expect dE=-0.525E-03 dE for cont linesearch -0.211E-09
 trial: gam= 0.45257 g(F)=  0.184E-02 g(S)=  0.193E-03 ort = 0.599E-05 (trialstep = 0.987E-01)
 search vector abs. value=  0.110E-01
 bond charge predicted
       N       E                     dE             d eps       ncg     rms          rms(c)
DAV:   1    -0.628076803370E+02   -0.21757E-03   -0.56521E-03  4480   0.552E-01    0.343E-02
DAV:   2    -0.628076541059E+02    0.26231E-04   -0.12495E-04  5748   0.779E-02    0.179E-02
DAV:   3    -0.628076439035E+02    0.10202E-04   -0.27394E-05  5340   0.316E-02    0.659E-03
DAV:   4    -0.628076429887E+02    0.91483E-06   -0.36673E-06  5364   0.122E-02    0.279E-03
DAV:   5    -0.628076430268E+02   -0.38156E-07   -0.28153E-07  5732   0.348E-03    0.135E-03
DAV:   6    -0.628076430783E+02   -0.51518E-07   -0.66831E-08  5500   0.176E-03    0.397E-04
DAV:   7    -0.628076430907E+02   -0.12373E-07   -0.72595E-09  3236   0.640E-04    0.172E-04
DAV:   8    -0.628076430915E+02   -0.82809E-09   -0.25652E-09  2976   0.369E-04
  37 F= -.62807643E+02 E0= -.62774916E+02  d E =-.180315E-03
 ZBRENT: can't locate minimum, use default step
 trial-energy change:   -0.000180  1 .order   -0.000180   -0.000201   -0.000160
 step:   0.3949(harm=  0.4870)  dis= 0.00204  next Energy=   -62.807958 (dE=-0.495E-03)
 bond charge predicted
       N       E                     dE             d eps       ncg     rms          rms(c)
DAV:   1    -0.628082762852E+02   -0.63319E-03   -0.50940E-02  4480   0.166E+00    0.103E-01
DAV:   2    -0.628080404939E+02    0.23579E-03   -0.11256E-03  5740   0.234E-01    0.536E-02
DAV:   3    -0.628079479954E+02    0.92499E-04   -0.24708E-04  5332   0.948E-02    0.199E-02
DAV:   4    -0.628079390964E+02    0.88990E-05   -0.33213E-05  5364   0.367E-02    0.840E-03
DAV:   5    -0.628079390844E+02    0.11973E-07   -0.25459E-06  5724   0.105E-02    0.407E-03
DAV:   6    -0.628079393521E+02   -0.26774E-06   -0.60730E-07  5720   0.529E-03    0.119E-03
DAV:   7    -0.628079394374E+02   -0.85273E-07   -0.74187E-08  5200   0.191E-03    0.543E-04
DAV:   8    -0.628079394535E+02   -0.16076E-07   -0.17524E-08  3816   0.955E-04    0.156E-04
DAV:   9    -0.628079394537E+02   -0.21737E-09   -0.34407E-09  3196   0.438E-04
  38 F= -.62807939E+02 E0= -.62775228E+02  d E =-.476677E-03
 curvature:  -1.25 expect dE=-0.155E-02 dE for cont linesearch -0.166E-04
 ZBRENT: extrapolating
 opt :   0.4865  next Energy=   -62.807957 (dE=-0.494E-03)
 bond charge predicted
       N       E                     dE             d eps       ncg     rms          rms(c)
DAV:   1    -0.628079893113E+02   -0.49858E-04   -0.48779E-03  4480   0.513E-01    0.319E-02
DAV:   2    -0.628079664582E+02    0.22853E-04   -0.10765E-04  5732   0.724E-02    0.166E-02
DAV:   3    -0.628079575960E+02    0.88622E-05   -0.23772E-05  5352   0.294E-02    0.613E-03
DAV:   4    -0.628079568055E+02    0.79047E-06   -0.31733E-06  5364   0.114E-02    0.260E-03
DAV:   5    -0.628079568424E+02   -0.36888E-07   -0.24298E-07  5724   0.323E-03    0.126E-03
DAV:   6    -0.628079568893E+02   -0.46871E-07   -0.57936E-08  5364   0.164E-03    0.368E-04
DAV:   7    -0.628079569003E+02   -0.10999E-07   -0.64379E-09  3216   0.598E-04    0.159E-04
DAV:   8    -0.628079569010E+02   -0.67939E-09   -0.22731E-09  2980   0.345E-04
  39 F= -.62807957E+02 E0= -.62775251E+02  d E =-.494125E-03
 curvature:  -1.32 expect dE=-0.233E-02 dE for cont linesearch -0.417E-12
 trial: gam= 0.86968 g(F)=  0.156E-02 g(S)=  0.208E-03 ort = 0.591E-07 (trialstep = 0.176E+00)
 search vector abs. value=  0.101E-01
 bond charge predicted
       N       E                     dE             d eps       ncg     rms          rms(c)
DAV:   1    -0.628082821361E+02   -0.32524E-03   -0.17034E-02  4480   0.956E-01    0.584E-02
DAV:   2    -0.628082077228E+02    0.74413E-04   -0.34739E-04  5656   0.130E-01    0.308E-02
DAV:   3    -0.628081760515E+02    0.31671E-04   -0.11376E-04  5292   0.632E-02    0.781E-03
DAV:   4    -0.628081753019E+02    0.74955E-06   -0.85898E-06  5296   0.201E-02    0.433E-03
DAV:   5    -0.628081752759E+02    0.25988E-07   -0.14227E-06  5408   0.769E-03    0.197E-03
DAV:   6    -0.628081753241E+02   -0.48163E-07   -0.15347E-07  5656   0.266E-03    0.937E-04
DAV:   7    -0.628081753629E+02   -0.38759E-07   -0.47989E-08  4164   0.148E-03    0.312E-04
DAV:   8    -0.628081753648E+02   -0.19468E-08   -0.61469E-09  3208   0.586E-04
  40 F= -.62808175E+02 E0= -.62775536E+02  d E =-.218464E-03
 trial-energy change:   -0.000218  1 .order   -0.000220   -0.000312   -0.000128
 step:   0.3077(harm=  0.2982)  dis= 0.00161  next Energy=   -62.808222 (dE=-0.265E-03)
 bond charge predicted
       N       E                     dE             d eps       ncg     rms          rms(c)
DAV:   1    -0.628082781305E+02   -0.10277E-03   -0.94781E-03  4480   0.713E-01    0.436E-02
DAV:   2    -0.628082364881E+02    0.41642E-04   -0.19307E-04  5656   0.969E-02    0.230E-02
DAV:   3    -0.628082187396E+02    0.17748E-04   -0.63357E-05  5300   0.472E-02    0.582E-03
DAV:   4    -0.628082183382E+02    0.40136E-06   -0.47771E-06  5292   0.150E-02    0.323E-03
DAV:   5    -0.628082183264E+02    0.11836E-07   -0.79238E-07  5416   0.573E-03    0.147E-03
DAV:   6    -0.628082183540E+02   -0.27600E-07   -0.85112E-08  5412   0.199E-03    0.700E-04
DAV:   7    -0.628082183770E+02   -0.23027E-07   -0.27179E-08  3948   0.111E-03    0.231E-04
DAV:   8    -0.628082183775E+02   -0.46180E-09   -0.34734E-09  3056   0.442E-04
  41 F= -.62808218E+02 E0= -.62775628E+02  d E =-.261477E-03
 curvature:  -0.85 expect dE=-0.180E-02 dE for cont linesearch -0.245E-06
 trial: gam= 1.23024 g(F)=  0.203E-02 g(S)=  0.979E-04 ort =-0.541E-04 (trialstep = 0.118E+00)
 search vector abs. value=  0.173E-01
 bond charge predicted
       N       E                     dE             d eps       ncg     rms          rms(c)
DAV:   1    -0.628084752313E+02   -0.25685E-03   -0.12574E-02  4480   0.827E-01    0.455E-02
DAV:   2    -0.628084379077E+02    0.37324E-04   -0.24118E-04  5748   0.109E-01    0.248E-02
DAV:   3    -0.628084192978E+02    0.18610E-04   -0.49025E-05  5404   0.429E-02    0.795E-03
DAV:   4    -0.628084181751E+02    0.11227E-05   -0.48614E-06  5464   0.149E-02    0.363E-03
DAV:   5    -0.628084182174E+02   -0.42354E-07   -0.56969E-07  5608   0.486E-03    0.169E-03
DAV:   6    -0.628084182814E+02   -0.63957E-07   -0.97710E-08  5620   0.218E-03    0.622E-04
DAV:   7    -0.628084183043E+02   -0.22872E-07   -0.20757E-08  3804   0.101E-03    0.235E-04
DAV:   8    -0.628084183051E+02   -0.86561E-09   -0.44256E-09  3200   0.505E-04
  42 F= -.62808418E+02 E0= -.62775877E+02  d E =-.199928E-03
 trial-energy change:   -0.000200  1 .order   -0.000200   -0.000244   -0.000156
 step:   0.3262(harm=  0.3262)  dis= 0.00218  next Energy=   -62.808555 (dE=-0.337E-03)
 bond charge predicted
       N       E                     dE             d eps       ncg     rms          rms(c)
DAV:   1    -0.628087328926E+02   -0.31459E-03   -0.38808E-02  4480   0.145E+00    0.800E-02
DAV:   2    -0.628086173392E+02    0.11555E-03   -0.74446E-04  5744   0.191E-01    0.436E-02
DAV:   3    -0.628085597955E+02    0.57544E-04   -0.15163E-04  5412   0.755E-02    0.140E-02
DAV:   4    -0.628085562028E+02    0.35927E-05   -0.15096E-05  5456   0.263E-02    0.639E-03
DAV:   5    -0.628085562748E+02   -0.72025E-07   -0.17632E-06  5628   0.855E-03    0.298E-03
DAV:   6    -0.628085564459E+02   -0.17105E-06   -0.30188E-07  5668   0.382E-03    0.109E-03
DAV:   7    -0.628085565105E+02   -0.64602E-07   -0.68756E-08  5124   0.177E-03    0.435E-04
DAV:   8    -0.628085565171E+02   -0.66093E-08   -0.11211E-08  3388   0.785E-04
  43 F= -.62808557E+02 E0= -.62776103E+02  d E =-.338140E-03
 curvature:  -1.37 expect dE=-0.107E-02 dE for cont linesearch -0.279E-09
 trial: gam= 0.29179 g(F)=  0.673E-03 g(S)=  0.112E-03 ort =-0.188E-05 (trialstep = 0.160E+00)
 search vector abs. value=  0.226E-02
 bond charge predicted
       N       E                     dE             d eps       ncg     rms          rms(c)
DAV:   1    -0.628086644287E+02   -0.10792E-03   -0.32085E-03  4480   0.425E-01    0.218E-02
DAV:   2    -0.628086587111E+02    0.57176E-05   -0.73145E-05  5748   0.602E-02    0.123E-02
DAV:   3    -0.628086553181E+02    0.33930E-05   -0.13350E-05  5376   0.238E-02    0.370E-03
DAV:   4    -0.628086551866E+02    0.13149E-06   -0.17182E-06  5488   0.858E-03    0.191E-03
DAV:   5    -0.628086552359E+02   -0.49251E-07   -0.22812E-07  5492   0.322E-03    0.731E-04
DAV:   6    -0.628086552567E+02   -0.20794E-07   -0.25571E-08  3820   0.111E-03    0.282E-04
DAV:   7    -0.628086552671E+02   -0.10471E-07   -0.54788E-09  2996   0.548E-04    0.888E-05
DAV:   8    -0.628086552662E+02    0.98248E-09   -0.10779E-09  2712   0.250E-04
  44 F= -.62808655E+02 E0= -.62776230E+02  d E =-.987491E-04
 trial-energy change:   -0.000099  1 .order   -0.000099   -0.000126   -0.000073
 step:   0.3964(harm=  0.3789)  dis= 0.00091  next Energy=   -62.808708 (dE=-0.151E-03)
 bond charge predicted
       N       E                     dE             d eps       ncg     rms          rms(c)
DAV:   1    -0.628087258794E+02   -0.70612E-04   -0.70164E-03  4480   0.629E-01    0.323E-02
DAV:   2    -0.628087132094E+02    0.12670E-04   -0.15989E-04  5748   0.890E-02    0.182E-02
DAV:   3    -0.628087056311E+02    0.75783E-05   -0.29270E-05  5372   0.352E-02    0.548E-03
DAV:   4    -0.628087052963E+02    0.33476E-06   -0.37619E-06  5492   0.127E-02    0.282E-03
DAV:   5    -0.628087053675E+02   -0.71187E-07   -0.50012E-07  5488   0.477E-03    0.108E-03
DAV:   6    -0.628087054037E+02   -0.36217E-07   -0.59552E-08  5200   0.163E-03    0.427E-04
DAV:   7    -0.628087054206E+02   -0.16877E-07   -0.87156E-09  3120   0.681E-04    0.130E-04
DAV:   8    -0.628087054199E+02    0.63028E-09   -0.21064E-09  2788   0.331E-04
  45 F= -.62808705E+02 E0= -.62776322E+02  d E =-.148903E-03
 curvature:  -0.54 expect dE=-0.660E-03 dE for cont linesearch -0.338E-06
 trial: gam= 1.60703 g(F)=  0.108E-02 g(S)=  0.142E-03 ort =-0.375E-04 (trialstep = 0.675E-01)
 search vector abs. value=  0.693E-02
 bond charge predicted
       N       E                     dE             d eps       ncg     rms          rms(c)
DAV:   1    -0.628087797180E+02   -0.74297E-04   -0.17381E-03  4480   0.312E-01    0.166E-02
DAV:   2    -0.628087753792E+02    0.43388E-05   -0.47867E-05  5692   0.491E-02    0.935E-03
DAV:   3    -0.628087735924E+02    0.17868E-05   -0.63486E-06  5232   0.164E-02    0.416E-03
DAV:   4    -0.628087733308E+02    0.26160E-06   -0.96395E-07  5616   0.632E-03    0.143E-03
DAV:   5    -0.628087733515E+02   -0.20720E-07   -0.90284E-08  5352   0.207E-03    0.631E-04
DAV:   6    -0.628087733612E+02   -0.96697E-08   -0.12096E-08  3164   0.794E-04
  46 F= -.62808773E+02 E0= -.62776423E+02  d E =-.679413E-04
 trial-energy change:   -0.000068  1 .order   -0.000067   -0.000078   -0.000057
 step:   0.1919(harm=  0.2435)  dis= 0.00083  next Energy=   -62.808829 (dE=-0.123E-03)
 bond charge predicted
       N       E                     dE             d eps       ncg     rms          rms(c)
DAV:   1    -0.628088626613E+02   -0.89310E-04   -0.59062E-03  4480   0.575E-01    0.305E-02
DAV:   2    -0.628088479477E+02    0.14714E-04   -0.16270E-04  5684   0.905E-02    0.172E-02
DAV:   3    -0.628088418680E+02    0.60797E-05   -0.21604E-05  5232   0.303E-02    0.765E-03
DAV:   4    -0.628088409317E+02    0.93630E-06   -0.32689E-06  5620   0.116E-02    0.264E-03
DAV:   5    -0.628088409736E+02   -0.41905E-07   -0.30775E-07  5664   0.382E-03    0.116E-03
DAV:   6    -0.628088409988E+02   -0.25191E-07   -0.44803E-08  4320   0.146E-03    0.389E-04
DAV:   7    -0.628088410061E+02   -0.73330E-08   -0.10202E-08  3052   0.768E-04
  47 F= -.62808841E+02 E0= -.62776552E+02  d E =-.135586E-03
 curvature:  -0.67 expect dE=-0.260E-03 dE for cont linesearch -0.592E-05
 ZBRENT: extrapolating
 opt :   0.2444  next Energy=   -62.808848 (dE=-0.142E-03)
 bond charge predicted
       N       E                     dE             d eps       ncg     rms          rms(c)
DAV:   1    -0.628088513433E+02   -0.10345E-04   -0.10489E-03  4480   0.242E-01    0.129E-02
DAV:   2    -0.628088487098E+02    0.26335E-05   -0.28899E-05  5692   0.382E-02    0.726E-03
DAV:   3    -0.628088476297E+02    0.10800E-05   -0.38464E-06  5240   0.128E-02    0.321E-03
DAV:   4    -0.628088474810E+02    0.14876E-06   -0.57989E-07  5612   0.491E-03    0.111E-03
DAV:   5    -0.628088474972E+02   -0.16252E-07   -0.54410E-08  5224   0.161E-03    0.490E-04
DAV:   6    -0.628088475043E+02   -0.70515E-08   -0.73726E-09  3012   0.619E-04
  48 F= -.62808848E+02 E0= -.62776584E+02  d E =-.142084E-03
 curvature:  -0.73 expect dE=-0.350E-03 dE for cont linesearch -0.198E-09
 trial: gam= 0.29533 g(F)=  0.406E-03 g(S)=  0.728E-04 ort =-0.137E-05 (trialstep = 0.103E+00)
 search vector abs. value=  0.108E-02
 bond charge predicted
       N       E                     dE             d eps       ncg     rms          rms(c)
DAV:   1    -0.628088939914E+02   -0.46494E-04   -0.67655E-04  4480   0.197E-01    0.100E-02
DAV:   2    -0.628088924960E+02    0.14953E-05   -0.16633E-05  5688   0.291E-02    0.570E-03
DAV:   3    -0.628088917869E+02    0.70916E-06   -0.24992E-06  5488   0.102E-02    0.222E-03
DAV:   4    -0.628088917313E+02    0.55582E-07   -0.29329E-07  5924   0.360E-03    0.969E-04
DAV:   5    -0.628088917251E+02    0.61941E-08   -0.39280E-08  5220   0.144E-03
  49 F= -.62808892E+02 E0= -.62776630E+02  d E =-.442208E-04
 ZBRENT: can't locate minimum, use default step
 trial-energy change:   -0.000044  1 .order   -0.000044   -0.000049   -0.000040
 step:   0.4116(harm=  0.5218)  dis= 0.00079  next Energy=   -62.808972 (dE=-0.125E-03)
 bond charge predicted
       N       E                     dE             d eps       ncg     rms          rms(c)
DAV:   1    -0.628089856778E+02   -0.93947E-04   -0.60889E-03  4480   0.591E-01    0.301E-02
DAV:   2    -0.628089729796E+02    0.12698E-04   -0.14943E-04  5688   0.872E-02    0.171E-02
DAV:   3    -0.628089669318E+02    0.60478E-05   -0.22361E-05  5484   0.305E-02    0.668E-03
DAV:   4    -0.628089664003E+02    0.53151E-06   -0.26295E-06  5916   0.108E-02    0.291E-03
DAV:   5    -0.628089663684E+02    0.31884E-07   -0.35244E-07  5344   0.430E-03    0.107E-03
DAV:   6    -0.628089663833E+02   -0.14900E-07   -0.65364E-08  5268   0.171E-03    0.485E-04
DAV:   7    -0.628089663867E+02   -0.33717E-08   -0.10175E-08  3172   0.763E-04
  50 F= -.62808966E+02 E0= -.62776708E+02  d E =-.118882E-03
 curvature:  -0.55 expect dE=-0.309E-03 dE for cont linesearch -0.533E-05
 trial: gam= 0.97895 g(F)=  0.494E-03 g(S)=  0.683E-04 ort = 0.102E-03 (trialstep = 0.990E-01)
 search vector abs. value=  0.180E-02
 bond charge predicted
       N       E                     dE             d eps       ncg     rms          rms(c)
DAV:   1    -0.628090238500E+02   -0.57467E-04   -0.12649E-03  4480   0.269E-01    0.137E-02
DAV:   2    -0.628090214165E+02    0.24335E-05   -0.33612E-05  5716   0.408E-02    0.717E-03
DAV:   3    -0.628090205407E+02    0.87579E-06   -0.37603E-06  5272   0.136E-02    0.346E-03
DAV:   4    -0.628090203858E+02    0.15485E-06   -0.64995E-07  5592   0.552E-03    0.123E-03
DAV:   5    -0.628090204041E+02   -0.18258E-07   -0.81289E-08  5428   0.188E-03    0.524E-04
DAV:   6    -0.628090204132E+02   -0.90952E-08   -0.74195E-09  3080   0.640E-04
  51 F= -.62809020E+02 E0= -.62776746E+02  d E =-.540265E-04
 trial-energy change:   -0.000054  1 .order   -0.000054   -0.000066   -0.000042
 step:   0.2616(harm=  0.2778)  dis= 0.00069  next Energy=   -62.809056 (dE=-0.893E-04)
 bond charge predicted
       N       E                     dE             d eps       ncg     rms          rms(c)
DAV:   1    -0.628090680360E+02   -0.47632E-04   -0.34145E-03  4480   0.443E-01    0.225E-02
DAV:   2    -0.628090614409E+02    0.65950E-05   -0.90886E-05  5708   0.671E-02    0.118E-02
DAV:   3    -0.628090590057E+02    0.24352E-05   -0.10164E-05  5272   0.224E-02    0.570E-03
DAV:   4    -0.628090585454E+02    0.46027E-06   -0.17628E-06  5584   0.909E-03    0.202E-03
DAV:   5    -0.628090585759E+02   -0.30523E-07   -0.22229E-07  6052   0.310E-03    0.862E-04
DAV:   6    -0.628090585928E+02   -0.16907E-07   -0.19985E-08  3372   0.105E-03    0.312E-04
DAV:   7    -0.628090585979E+02   -0.50729E-08   -0.79238E-09  3004   0.670E-04
  52 F= -.62809059E+02 E0= -.62776757E+02  d E =-.922112E-04
 curvature:  -0.37 expect dE=-0.143E-03 dE for cont linesearch -0.333E-06
 trial: gam= 0.90098 g(F)=  0.340E-03 g(S)=  0.428E-04 ort = 0.400E-04 (trialstep = 0.124E+00)
 search vector abs. value=  0.192E-02
 bond charge predicted
       N       E                     dE             d eps       ncg     rms          rms(c)
DAV:   1    -0.628091082317E+02   -0.49639E-04   -0.17216E-03  4480   0.314E-01    0.138E-02
DAV:   2    -0.628091069236E+02    0.13081E-05   -0.29531E-05  5544   0.388E-02    0.772E-03
DAV:   3    -0.628091057633E+02    0.11604E-05   -0.27157E-06  5848   0.110E-02    0.263E-03
DAV:   4    -0.628091056949E+02    0.68315E-07   -0.48438E-07  5584   0.455E-03    0.927E-04
DAV:   5    -0.628091057062E+02   -0.11225E-07   -0.42966E-08  5184   0.144E-03    0.487E-04
DAV:   6    -0.628091057145E+02   -0.83578E-08   -0.66880E-09  3100   0.610E-04
  53 F= -.62809106E+02 E0= -.62776802E+02  d E =-.471166E-04
 ZBRENT: can't locate minimum, use default step
 trial-energy change:   -0.000047  1 .order   -0.000047   -0.000052   -0.000043
 step:   0.4942(harm=  0.6951)  dis= 0.00144  next Energy=   -62.809204 (dE=-0.145E-03)
 bond charge predicted
       N       E                     dE             d eps       ncg     rms          rms(c)
DAV:   1    -0.628092150474E+02   -0.10934E-03   -0.15497E-02  4480   0.942E-01    0.415E-02
DAV:   2    -0.628092033480E+02    0.11699E-04   -0.26589E-04  5540   0.116E-01    0.232E-02
DAV:   3    -0.628091928129E+02    0.10535E-04   -0.24410E-05  5844   0.331E-02    0.792E-03
DAV:   4    -0.628091921373E+02    0.67561E-06   -0.43900E-06  5564   0.137E-02    0.278E-03
DAV:   5    -0.628091922114E+02   -0.74085E-07   -0.39222E-07  5348   0.434E-03    0.146E-03
DAV:   6    -0.628091922682E+02   -0.56844E-07   -0.67913E-08  5156   0.182E-03    0.458E-04
DAV:   7    -0.628091922802E+02   -0.11977E-07   -0.88914E-09  3284   0.716E-04    0.162E-04
DAV:   8    -0.628091922826E+02   -0.24188E-08   -0.28822E-09  3060   0.396E-04
  54 F= -.62809192E+02 E0= -.62776884E+02  d E =-.133685E-03
 curvature:  -1.39 expect dE=-0.519E-03 dE for cont linesearch -0.110E-04
 ZBRENT: increasing intervall
 opt :   1.2355  next Energy=   -62.809119 (dE=-0.605E-04)
 bond charge predicted
       N       E                     dE             d eps       ncg     rms          rms(c)
DAV:   1    -0.628092113160E+02   -0.19036E-04   -0.61972E-02  4480   0.188E+00    0.830E-02
DAV:   2    -0.628091644079E+02    0.46908E-04   -0.10636E-03  5536   0.233E-01    0.464E-02
DAV:   3    -0.628091223494E+02    0.42059E-04   -0.97177E-05  5844   0.660E-02    0.160E-02
DAV:   4    -0.628091194732E+02    0.28762E-05   -0.17792E-05  5548   0.276E-02    0.557E-03
DAV:   5    -0.628091197415E+02   -0.26833E-06   -0.16056E-06  5348   0.877E-03    0.294E-03
DAV:   6    -0.628091199484E+02   -0.20690E-06   -0.27322E-07  5580   0.363E-03    0.919E-04
DAV:   7    -0.628091199934E+02   -0.44945E-07   -0.39457E-08  5164   0.143E-03    0.338E-04
DAV:   8    -0.628091200025E+02   -0.91304E-08   -0.72875E-09  3240   0.647E-04
  55 F= -.62809120E+02 E0= -.62776806E+02  d E =-.614046E-04
 curvature:   9.31 expect dE= 0.172E-01 dE for cont linesearch  0.490E-03
 ZBRENT: bracketing found
 ZBRENT: interpolating
 opt :   0.7008  next Energy=   -62.809205 (dE=-0.146E-03)
 bond charge predicted
       N       E                     dE             d eps       ncg     rms          rms(c)
DAV:   1    -0.628092526500E+02   -0.13266E-03   -0.32254E-02  4480   0.136E+00    0.599E-02
DAV:   2    -0.628092284935E+02    0.24156E-04   -0.55350E-04  5536   0.168E-01    0.334E-02
DAV:   3    -0.628092064706E+02    0.22023E-04   -0.50637E-05  5844   0.477E-02    0.115E-02
DAV:   4    -0.628092049321E+02    0.15385E-05   -0.92443E-06  5544   0.199E-02    0.401E-03
DAV:   5    -0.628092050360E+02   -0.10394E-06   -0.82884E-07  5348   0.630E-03    0.212E-03
DAV:   6    -0.628092051176E+02   -0.81543E-07   -0.14135E-07  5584   0.261E-03    0.662E-04
DAV:   7    -0.628092051359E+02   -0.18318E-07   -0.18295E-08  3576   0.103E-03    0.236E-04
DAV:   8    -0.628092051403E+02   -0.44131E-08   -0.51976E-09  3168   0.544E-04
  56 F= -.62809205E+02 E0= -.62776895E+02  d E =-.146542E-03
 curvature:  -0.24 expect dE=-0.145E-03 dE for cont linesearch -0.109E-11
 trial: gam= 1.33847 g(F)=  0.559E-03 g(S)=  0.444E-04 ort = 0.930E-07 (trialstep = 0.113E+00)
 search vector abs. value=  0.403E-02
 bond charge predicted
       N       E                     dE             d eps       ncg     rms          rms(c)
DAV:   1    -0.628092705165E+02   -0.65381E-04   -0.28798E-03  4480   0.404E-01    0.184E-02
DAV:   2    -0.628092679397E+02    0.25767E-05   -0.52155E-05  5744   0.503E-02    0.106E-02
DAV:   3    -0.628092655579E+02    0.23819E-05   -0.70899E-06  5664   0.179E-02    0.277E-03
DAV:   4    -0.628092655117E+02    0.46176E-07   -0.10918E-06  5528   0.694E-03    0.142E-03
DAV:   5    -0.628092655199E+02   -0.82209E-08   -0.10129E-07  5296   0.220E-03    0.658E-04
DAV:   6    -0.628092655263E+02   -0.64229E-08   -0.14236E-08  3284   0.921E-04
  57 F= -.62809266E+02 E0= -.62776974E+02  d E =-.603860E-04
 ZBRENT: can't locate minimum, use default step
 trial-energy change:   -0.000060  1 .order   -0.000060   -0.000068   -0.000052
 step:   0.4538(harm=  0.4852)  dis= 0.00182  next Energy=   -62.809352 (dE=-0.146E-03)
 bond charge predicted
       N       E                     dE             d eps       ncg     rms          rms(c)
DAV:   1    -0.628093948046E+02   -0.12928E-03   -0.25925E-02  4480   0.121E+00    0.551E-02
DAV:   2    -0.628093718721E+02    0.22932E-04   -0.46995E-04  5744   0.151E-01    0.316E-02
DAV:   3    -0.628093507979E+02    0.21074E-04   -0.63761E-05  5656   0.536E-02    0.831E-03
DAV:   4    -0.628093504306E+02    0.36726E-06   -0.98322E-06  5532   0.208E-02    0.426E-03
DAV:   5    -0.628093505454E+02   -0.11481E-06   -0.91404E-07  5296   0.661E-03    0.198E-03
DAV:   6    -0.628093506185E+02   -0.73080E-07   -0.14806E-07  5596   0.278E-03    0.670E-04
DAV:   7    -0.628093506349E+02   -0.16338E-07   -0.31976E-08  4548   0.126E-03    0.258E-04
DAV:   8    -0.628093506397E+02   -0.47987E-08   -0.57996E-09  3188   0.539E-04
  58 F= -.62809351E+02 E0= -.62777115E+02  d E =-.145499E-03
 curvature:  -1.61 expect dE=-0.194E-02 dE for cont linesearch -0.668E-06
 trial: gam= 1.85541 g(F)=  0.115E-02 g(S)=  0.565E-04 ort = 0.409E-04 (trialstep = 0.480E-01)
 search vector abs. value=  0.152E-01
 bond charge predicted
       N       E                     dE             d eps       ncg     rms          rms(c)
DAV:   1    -0.628094109323E+02   -0.60297E-04   -0.18876E-03  4480   0.326E-01    0.152E-02
DAV:   2    -0.628094089745E+02    0.19578E-05   -0.36061E-05  5588   0.419E-02    0.875E-03
DAV:   3    -0.628094074354E+02    0.15391E-05   -0.43073E-06  5644   0.138E-02    0.268E-03
DAV:   4    -0.628094073686E+02    0.66774E-07   -0.57440E-07  5652   0.506E-03    0.115E-03
DAV:   5    -0.628094073783E+02   -0.97129E-08   -0.65261E-08  5300   0.173E-03
  59 F= -.62809407E+02 E0= -.62777179E+02  d E =-.567387E-04
 ZBRENT: can't locate minimum, use default step
 trial-energy change:   -0.000057  1 .order   -0.000057   -0.000061   -0.000052
 step:   0.1922(harm=  0.3109)  dis= 0.00140  next Energy=   -62.809549 (dE=-0.199E-03)
 bond charge predicted
       N       E                     dE             d eps       ncg     rms          rms(c)
DAV:   1    -0.628095523930E+02   -0.14502E-03   -0.16988E-02  4480   0.979E-01    0.457E-02
DAV:   2    -0.628095346629E+02    0.17730E-04   -0.32473E-04  5588   0.126E-01    0.262E-02
DAV:   3    -0.628095206350E+02    0.14028E-04   -0.38565E-05  5636   0.414E-02    0.804E-03
DAV:   4    -0.628095200654E+02    0.56964E-06   -0.51500E-06  5644   0.151E-02    0.344E-03
DAV:   5    -0.628095201553E+02   -0.89918E-07   -0.58896E-07  5668   0.519E-03    0.160E-03
DAV:   6    -0.628095202099E+02   -0.54610E-07   -0.99894E-08  5324   0.211E-03    0.639E-04
DAV:   7    -0.628095202269E+02   -0.17000E-07   -0.22577E-08  3764   0.111E-03    0.192E-04
DAV:   8    -0.628095202309E+02   -0.39656E-08   -0.51281E-09  3172   0.537E-04
  60 F= -.62809520E+02 E0= -.62777313E+02  d E =-.169591E-03
 curvature:  -1.48 expect dE=-0.310E-03 dE for cont linesearch -0.225E-04
 ZBRENT: increasing intervall
 opt :   0.4804  next Energy=   -62.809487 (dE=-0.136E-03)
 bond charge predicted
       N       E                     dE             d eps       ncg     rms          rms(c)
DAV:   1    -0.628096176524E+02   -0.97425E-04   -0.67945E-02  4480   0.196E+00    0.914E-02
DAV:   2    -0.628095459626E+02    0.71690E-04   -0.12993E-03  5584   0.252E-01    0.525E-02
DAV:   3    -0.628094896003E+02    0.56362E-04   -0.15358E-04  5636   0.827E-02    0.162E-02
DAV:   4    -0.628094872119E+02    0.23884E-05   -0.20616E-05  5640   0.303E-02    0.684E-03
DAV:   5    -0.628094875507E+02   -0.33879E-06   -0.23643E-06  5656   0.104E-02    0.318E-03
DAV:   6    -0.628094877544E+02   -0.20363E-06   -0.39816E-07  5564   0.419E-03    0.128E-03
DAV:   7    -0.628094878203E+02   -0.65961E-07   -0.95459E-08  5068   0.221E-03    0.394E-04
DAV:   8    -0.628094878335E+02   -0.13172E-07   -0.16167E-08  3384   0.963E-04    0.178E-04
DAV:   9    -0.628094878358E+02   -0.23344E-08   -0.45428E-09  3148   0.505E-04
  61 F= -.62809488E+02 E0= -.62777320E+02  d E =-.137196E-03
 curvature:   2.19 expect dE= 0.307E-02 dE for cont linesearch  0.734E-04
 ZBRENT: bracketing found
 ZBRENT: interpolating
 opt :   0.3084  next Energy=   -62.809548 (dE=-0.198E-03)
 bond charge predicted
       N       E                     dE             d eps       ncg     rms          rms(c)
DAV:   1    -0.628095952271E+02   -0.10739E-03   -0.24205E-02  4480   0.117E+00    0.546E-02
DAV:   2    -0.628095692524E+02    0.25975E-04   -0.46324E-04  5584   0.150E-01    0.313E-02
DAV:   3    -0.628095490097E+02    0.20243E-04   -0.54460E-05  5636   0.493E-02    0.970E-03
DAV:   4    -0.628095481744E+02    0.83522E-06   -0.73880E-06  5636   0.181E-02    0.411E-03
DAV:   5    -0.628095482915E+02   -0.11703E-06   -0.84935E-07  5672   0.622E-03    0.191E-03
DAV:   6    -0.628095483547E+02   -0.63212E-07   -0.14370E-07  5556   0.252E-03    0.766E-04
DAV:   7    -0.628095483765E+02   -0.21807E-07   -0.32594E-08  4252   0.131E-03    0.232E-04
DAV:   8    -0.628095483797E+02   -0.32569E-08   -0.67134E-09  3252   0.619E-04
  62 F= -.62809548E+02 E0= -.62777358E+02  d E =-.197740E-03
 curvature:  -0.84 expect dE=-0.252E-03 dE for cont linesearch -0.767E-13
 trial: gam= 0.38919 g(F)=  0.249E-03 g(S)=  0.528E-04 ort = 0.374E-07 (trialstep = 0.100E+00)
 search vector abs. value=  0.261E-02
 bond charge predicted
       N       E                     dE             d eps       ncg     rms          rms(c)
DAV:   1    -0.628095797296E+02   -0.31353E-04   -0.11909E-03  4480   0.259E-01    0.125E-02
DAV:   2    -0.628095785292E+02    0.12005E-05   -0.20715E-05  5692   0.321E-02    0.710E-03
DAV:   3    -0.628095773167E+02    0.12125E-05   -0.24435E-06  5780   0.998E-03    0.153E-03
DAV:   4    -0.628095772982E+02    0.18485E-07   -0.26714E-07  5440   0.361E-03    0.818E-04
DAV:   5    -0.628095772992E+02   -0.95883E-09   -0.23004E-08  3756   0.110E-03
  63 F= -.62809577E+02 E0= -.62777396E+02  d E =-.289194E-04
 ZBRENT: can't locate minimum, use default step
 trial-energy change:   -0.000029  1 .order   -0.000029   -0.000030   -0.000028
 step:   0.4004(harm=  1.2845)  dis= 0.00096  next Energy=   -62.809742 (dE=-0.194E-03)
 bond charge predicted
       N       E                     dE             d eps       ncg     rms          rms(c)
DAV:   1    -0.628096715940E+02   -0.94296E-04   -0.10715E-02  4480   0.776E-01    0.374E-02
DAV:   2    -0.628096610091E+02    0.10585E-04   -0.18646E-04  5700   0.962E-02    0.213E-02
DAV:   3    -0.628096505560E+02    0.10453E-04   -0.21973E-05  5788   0.299E-02    0.458E-03
DAV:   4    -0.628096505317E+02    0.24371E-07   -0.24021E-06  5448   0.108E-02    0.246E-03
DAV:   5    -0.628096505951E+02   -0.63409E-07   -0.23024E-07  5464   0.332E-03    0.109E-03
DAV:   6    -0.628096506229E+02   -0.27818E-07   -0.44154E-08  5060   0.152E-03    0.314E-04
DAV:   7    -0.628096506280E+02   -0.51600E-08   -0.66963E-09  3296   0.610E-04
  64 F= -.62809651E+02 E0= -.62777497E+02  d E =-.102248E-03
 curvature:  -2.46 expect dE=-0.583E-03 dE for cont linesearch -0.408E-04
 ZBRENT: increasing intervall
 opt :   1.0010  next Energy=   -62.809733 (dE=-0.185E-03)
 bond charge predicted
       N       E                     dE             d eps       ncg     rms          rms(c)
DAV:   1    -0.628098143705E+02   -0.16375E-03   -0.42821E-02  4480   0.155E+00    0.747E-02
DAV:   2    -0.628097726671E+02    0.41703E-04   -0.74397E-04  5680   0.192E-01    0.426E-02
DAV:   3    -0.628097314119E+02    0.41255E-04   -0.87543E-05  5812   0.598E-02    0.915E-03
DAV:   4    -0.628097314338E+02   -0.21878E-07   -0.95637E-06  5448   0.216E-02    0.491E-03
DAV:   5    -0.628097317301E+02   -0.29636E-06   -0.91626E-07  5468   0.662E-03    0.219E-03
DAV:   6    -0.628097318616E+02   -0.13146E-06   -0.17625E-07  5396   0.302E-03    0.628E-04
DAV:   7    -0.628097318849E+02   -0.23341E-07   -0.28577E-08  4928   0.121E-03    0.245E-04
DAV:   8    -0.628097318912E+02   -0.62907E-08   -0.52890E-09  3160   0.531E-04
  65 F= -.62809732E+02 E0= -.62777630E+02  d E =-.183511E-03
 curvature:  -5.00 expect dE=-0.242E-02 dE for cont linesearch -0.857E-05
 trial: gam= 1.25843 g(F)=  0.404E-03 g(S)=  0.809E-04 ort = 0.669E-04 (trialstep = 0.153E+00)
 search vector abs. value=  0.479E-02
 bond charge predicted
       N       E                     dE             d eps       ncg     rms          rms(c)
DAV:   1    -0.628098208960E+02   -0.89011E-04   -0.50529E-03  4480   0.534E-01    0.267E-02
DAV:   2    -0.628098144283E+02    0.64677E-05   -0.96063E-05  5736   0.691E-02    0.151E-02
DAV:   3    -0.628098089360E+02    0.54923E-05   -0.13522E-05  5664   0.243E-02    0.346E-03
DAV:   4    -0.628098089072E+02    0.28758E-07   -0.15458E-06  5404   0.853E-03    0.178E-03
DAV:   5    -0.628098089382E+02   -0.31020E-07   -0.14593E-07  5624   0.260E-03    0.830E-04
DAV:   6    -0.628098089548E+02   -0.16600E-07   -0.20652E-08  3300   0.105E-03    0.316E-04
DAV:   7    -0.628098089605E+02   -0.57089E-08   -0.72995E-09  3212   0.612E-04
  66 F= -.62809809E+02 E0= -.62777736E+02  d E =-.770693E-04
 ZBRENT: can't locate minimum, use default step
 trial-energy change:   -0.000077  1 .order   -0.000077   -0.000087   -0.000067
 step:   0.6114(harm=  0.6661)  dis= 0.00133  next Energy=   -62.809921 (dE=-0.189E-03)
 bond charge predicted
       N       E                     dE             d eps       ncg     rms          rms(c)
DAV:   1    -0.628100274645E+02   -0.21851E-03   -0.45442E-02  4480   0.160E+00    0.801E-02
DAV:   2    -0.628099691536E+02    0.58311E-04   -0.86385E-04  5744   0.207E-01    0.454E-02
DAV:   3    -0.628099198235E+02    0.49330E-04   -0.12170E-04  5664   0.731E-02    0.104E-02
DAV:   4    -0.628099197034E+02    0.12003E-06   -0.13924E-05  5404   0.256E-02    0.534E-03
DAV:   5    -0.628099200140E+02   -0.31054E-06   -0.13117E-06  5624   0.780E-03    0.249E-03
DAV:   6    -0.628099201719E+02   -0.15793E-06   -0.21177E-07  5268   0.314E-03    0.968E-04
DAV:   7    -0.628099202204E+02   -0.48544E-07   -0.44473E-08  5148   0.147E-03    0.330E-04
DAV:   8    -0.628099202300E+02   -0.95752E-08   -0.82101E-09  3340   0.666E-04
  67 F= -.62809920E+02 E0= -.62777935E+02  d E =-.188339E-03
 curvature:  -2.77 expect dE=-0.241E-02 dE for cont linesearch -0.120E-05
 trial: gam= 2.00399 g(F)=  0.827E-03 g(S)=  0.429E-04 ort = 0.456E-04 (trialstep = 0.577E-01)
 search vector abs. value=  0.203E-01
 bond charge predicted
       N       E                     dE             d eps       ncg     rms          rms(c)
DAV:   1    -0.628099780514E+02   -0.57831E-04   -0.29560E-03  4480   0.407E-01    0.207E-02
DAV:   2    -0.628099731900E+02    0.48615E-05   -0.57849E-05  5676   0.544E-02    0.119E-02
DAV:   3    -0.628099702487E+02    0.29412E-05   -0.86616E-06  5444   0.187E-02    0.368E-03
DAV:   4    -0.628099701073E+02    0.14140E-06   -0.85127E-07  5740   0.630E-03    0.165E-03
DAV:   5    -0.628099701303E+02   -0.22959E-07   -0.13122E-07  5316   0.245E-03    0.722E-04
DAV:   6    -0.628099701446E+02   -0.14294E-07   -0.19083E-08  3364   0.101E-03    0.279E-04
DAV:   7    -0.628099701493E+02   -0.47028E-08   -0.66030E-09  3084   0.633E-04
  68 F= -.62809970E+02 E0= -.62777990E+02  d E =-.499193E-04
 ZBRENT: can't locate minimum, use default step
 trial-energy change:   -0.000050  1 .order   -0.000050   -0.000056   -0.000044
 step:   0.2309(harm=  0.2879)  dis= 0.00105  next Energy=   -62.810059 (dE=-0.138E-03)
 bond charge predicted
       N       E                     dE             d eps       ncg     rms          rms(c)
DAV:   1    -0.628101258902E+02   -0.15575E-03   -0.26586E-02  4480   0.122E+00    0.622E-02
DAV:   2    -0.628100813908E+02    0.44499E-04   -0.52045E-04  5684   0.163E-01    0.356E-02
DAV:   3    -0.628100543164E+02    0.27074E-04   -0.77936E-05  5452   0.560E-02    0.111E-02
DAV:   4    -0.628100530215E+02    0.12949E-05   -0.76702E-06  5732   0.189E-02    0.494E-03
DAV:   5    -0.628100532155E+02   -0.19408E-06   -0.11849E-06  5316   0.736E-03    0.217E-03
DAV:   6    -0.628100533318E+02   -0.11621E-06   -0.18983E-07  5712   0.303E-03    0.854E-04
DAV:   7    -0.628100533669E+02   -0.35144E-07   -0.59136E-08  5064   0.181E-03    0.301E-04
DAV:   8    -0.628100533756E+02   -0.87146E-08   -0.10294E-08  3304   0.783E-04
  69 F= -.62810053E+02 E0= -.62778088E+02  d E =-.133146E-03
 curvature:  -2.85 expect dE=-0.137E-02 dE for cont linesearch -0.511E-05
 ZBRENT: extrapolating
 opt :   0.2880  next Energy=   -62.810059 (dE=-0.139E-03)
 bond charge predicted
       N       E                     dE             d eps       ncg     rms          rms(c)
DAV:   1    -0.628100673789E+02   -0.14012E-04   -0.28868E-03  4480   0.402E-01    0.205E-02
DAV:   2    -0.628100626810E+02    0.46979E-05   -0.56507E-05  5688   0.538E-02    0.117E-02
DAV:   3    -0.628100598334E+02    0.28476E-05   -0.84059E-06  5452   0.184E-02    0.366E-03
DAV:   4    -0.628100596924E+02    0.14107E-06   -0.83272E-07  5732   0.622E-03    0.163E-03
DAV:   5    -0.628100597150E+02   -0.22611E-07   -0.12846E-07  5316   0.243E-03    0.714E-04
DAV:   6    -0.628100597288E+02   -0.13776E-07   -0.18677E-08  3368   0.100E-03    0.277E-04
DAV:   7    -0.628100597335E+02   -0.47744E-08   -0.64509E-09  3064   0.625E-04
  70 F= -.62810060E+02 E0= -.62778099E+02  d E =-.139504E-03
 curvature:  -3.04 expect dE=-0.214E-02 dE for cont linesearch -0.987E-10
 trial: gam= 0.83198 g(F)=  0.546E-03 g(S)=  0.160E-03 ort =-0.812E-06 (trialstep = 0.104E+00)
 search vector abs. value=  0.147E-01
 bond charge predicted
       N       E                     dE             d eps       ncg     rms          rms(c)
DAV:   1    -0.628101430918E+02   -0.83363E-04   -0.67557E-03  4480   0.613E-01    0.303E-02
DAV:   2    -0.628101350133E+02    0.80785E-05   -0.11770E-04  5784   0.766E-02    0.173E-02
DAV:   3    -0.628101278281E+02    0.71851E-05   -0.15087E-05  5584   0.239E-02    0.380E-03
[...]
DAV:   3    -0.628115732071E+02    0.14721E-05   -0.32748E-06  5488   0.115E-02    0.263E-03
DAV:   4    -0.628115730858E+02    0.12128E-06   -0.55679E-07  5396   0.484E-03    0.103E-03
DAV:   5    -0.628115730860E+02   -0.20236E-09   -0.65710E-08  5248   0.169E-03
 191 F= -.62811573E+02 E0= -.62778980E+02  d E =-.391006E-05
 curvature:  -3.64 expect dE=-0.622E-04 dE for cont linesearch -0.422E-11
 trial: gam= 0.89733 g(F)=  0.149E-04 g(S)=  0.224E-05 ort =-0.249E-07 (trialstep = 0.143E+00)
 search vector abs. value=  0.448E-03
 bond charge predicted
       N       E                     dE             d eps       ncg     rms          rms(c)
DAV:   1    -0.628115763385E+02   -0.32527E-05   -0.37113E-04  4480   0.142E-01    0.783E-03
DAV:   2    -0.628115756432E+02    0.69526E-06   -0.65068E-06  5624   0.178E-02    0.436E-03
DAV:   3    -0.628115751985E+02    0.44473E-06   -0.12672E-06  5756   0.676E-03    0.943E-04
DAV:   4    -0.628115751935E+02    0.49890E-08   -0.11267E-07  5340   0.240E-03    0.573E-04
DAV:   5    -0.628115751947E+02   -0.12060E-08   -0.15502E-08  3152   0.888E-04
 192 F= -.62811575E+02 E0= -.62778980E+02  d E =-.210870E-05
 trial-energy change:   -0.000002  1 .order   -0.000002   -0.000002   -0.000002
 step:   0.2768(harm=  0.4205)  dis= 0.00024  next Energy=   -62.811576 (dE=-0.292E-05)
 bond charge predicted
       N       E                     dE             d eps       ncg     rms          rms(c)
DAV:   1    -0.628115774311E+02   -0.22376E-05   -0.32123E-04  4480   0.132E-01    0.730E-03
DAV:   2    -0.628115768255E+02    0.60557E-06   -0.56251E-06  5628   0.165E-02    0.406E-03
DAV:   3    -0.628115764397E+02    0.38585E-06   -0.10960E-06  5736   0.629E-03    0.874E-04
DAV:   4    -0.628115764343E+02    0.54340E-08   -0.97696E-08  5292   0.223E-03
 193 F= -.62811576E+02 E0= -.62778978E+02  d E =-.334826E-05
 curvature:  -4.03 expect dE=-0.406E-04 dE for cont linesearch -0.339E-06
 ZBRENT: increasing intervall
 opt :   0.5435  next Energy=   -62.811577 (dE=-0.362E-05)
 bond charge predicted
       N       E                     dE             d eps       ncg     rms          rms(c)
DAV:   1    -0.628115809329E+02   -0.44932E-05   -0.12841E-03  4480   0.264E-01    0.146E-02
DAV:   2    -0.628115784140E+02    0.25188E-05   -0.22481E-05  5608   0.331E-02    0.815E-03
DAV:   3    -0.628115768164E+02    0.15976E-05   -0.43811E-06  5756   0.126E-02    0.176E-03
DAV:   4    -0.628115768072E+02    0.92123E-08   -0.39557E-07  5372   0.449E-03    0.106E-03
DAV:   5    -0.628115768160E+02   -0.87778E-08   -0.60720E-08  5188   0.165E-03
 194 F= -.62811577E+02 E0= -.62778974E+02  d E =-.373000E-05
 curvature:  -3.26 expect dE=-0.839E-04 dE for cont linesearch -0.142E-06
 ZBRENT: bracketing found
 ZBRENT: interpolating
 opt :   0.4319  next Energy=   -62.811577 (dE=-0.398E-05)
 bond charge predicted
       N       E                     dE             d eps       ncg     rms          rms(c)
DAV:   1    -0.628115778165E+02   -0.10092E-05   -0.22485E-04  4480   0.111E-01    0.619E-03
DAV:   2    -0.628115773127E+02    0.50382E-06   -0.39194E-06  5580   0.138E-02    0.343E-03
DAV:   3    -0.628115769944E+02    0.31821E-06   -0.75913E-07  5764   0.524E-03    0.709E-04
DAV:   4    -0.628115769979E+02   -0.34588E-08   -0.68539E-08  5196   0.187E-03
 195 F= -.62811577E+02 E0= -.62778977E+02  d E =-.391190E-05
 curvature:  -5.65 expect dE=-0.926E-04 dE for cont linesearch -0.154E-13
 trial: gam= 0.83113 g(F)=  0.153E-04 g(S)=  0.104E-05 ort =-0.111E-08 (trialstep = 0.201E+00)
 search vector abs. value=  0.326E-03
 bond charge predicted
       N       E                     dE             d eps       ncg     rms          rms(c)
DAV:   1    -0.628115814374E+02   -0.44429E-05   -0.55158E-04  4480   0.174E-01    0.898E-03
DAV:   2    -0.628115806092E+02    0.82820E-06   -0.94349E-06  5704   0.215E-02    0.508E-03
DAV:   3    -0.628115799758E+02    0.63334E-06   -0.14051E-06  5612   0.722E-03    0.113E-03
DAV:   4    -0.628115799627E+02    0.13100E-07   -0.11406E-07  5496   0.235E-03    0.620E-04
DAV:   5    -0.628115799637E+02   -0.96566E-09   -0.18193E-08  3180   0.940E-04
 196 F= -.62811580E+02 E0= -.62778974E+02  d E =-.296580E-05
 ZBRENT: can't locate minimum, use default step
 trial-energy change:   -0.000003  1 .order   -0.000003   -0.000003   -0.000003
 step:   0.8043(harm=  0.9046)  dis= 0.00071  next Energy=   -62.811584 (dE=-0.740E-05)
 bond charge predicted
       N       E                     dE             d eps       ncg     rms          rms(c)
DAV:   1    -0.628115974917E+02   -0.17529E-04   -0.49610E-03  4480   0.523E-01    0.269E-02
DAV:   2    -0.628115899463E+02    0.75453E-05   -0.84965E-05  5712   0.646E-02    0.153E-02
DAV:   3    -0.628115843199E+02    0.56265E-05   -0.12681E-05  5612   0.217E-02    0.344E-03
DAV:   4    -0.628115842927E+02    0.27163E-07   -0.10413E-06  5524   0.709E-03    0.190E-03
DAV:   5    -0.628115843367E+02   -0.44034E-07   -0.19584E-07  5324   0.286E-03    0.728E-04
DAV:   6    -0.628115843502E+02   -0.13498E-07   -0.18966E-08  3416   0.103E-03    0.311E-04
DAV:   7    -0.628115843572E+02   -0.69281E-08   -0.78836E-09  3032   0.612E-04
 197 F= -.62811584E+02 E0= -.62778963E+02  d E =-.735927E-05
 curvature:  -8.82 expect dE=-0.138E-03 dE for cont linesearch -0.668E-07
 trial: gam= 0.88896 g(F)=  0.139E-04 g(S)=  0.178E-05 ort = 0.157E-05 (trialstep = 0.322E+00)
 search vector abs. value=  0.276E-03
 bond charge predicted
       N       E                     dE             d eps       ncg     rms          rms(c)
DAV:   1    -0.628115912184E+02   -0.68682E-05   -0.12510E-03  4480   0.265E-01    0.135E-02
DAV:   2    -0.628115889904E+02    0.22280E-05   -0.25412E-05  5648   0.354E-02    0.766E-03
DAV:   3    -0.628115877714E+02    0.12190E-05   -0.29558E-06  5436   0.112E-02    0.302E-03
DAV:   4    -0.628115875971E+02    0.17431E-06   -0.56974E-07  5592   0.492E-03    0.103E-03
DAV:   5    -0.628115875938E+02    0.32971E-08   -0.60279E-08  5212   0.168E-03
 198 F= -.62811588E+02 E0= -.62778953E+02  d E =-.323659E-05
 trial-energy change:   -0.000003  1 .order   -0.000004   -0.000005   -0.000002
 step:   0.4485(harm=  0.4485)  dis= 0.00035  next Energy=   -62.811588 (dE=-0.383E-05)
 bond charge predicted
       N       E                     dE             d eps       ncg     rms          rms(c)
DAV:   1    -0.628115881170E+02   -0.51996E-06   -0.19405E-04  4480   0.104E-01    0.527E-03
DAV:   2    -0.628115877837E+02    0.33334E-06   -0.39583E-06  5668   0.140E-02    0.300E-03
DAV:   3    -0.628115875952E+02    0.18846E-06   -0.45548E-07  5432   0.439E-03    0.120E-03
DAV:   4    -0.628115875614E+02    0.33854E-07   -0.89695E-08  5348   0.195E-03    0.411E-04
DAV:   5    -0.628115875577E+02    0.37178E-08   -0.83315E-09  2932   0.676E-04
 199 F= -.62811588E+02 E0= -.62778948E+02  d E =-.320048E-05
 curvature:  -3.62 expect dE=-0.473E-04 dE for cont linesearch -0.139E-09
 trial: gam= 0.96524 g(F)=  0.122E-04 g(S)=  0.844E-06 ort =-0.103E-06 (trialstep = 0.347E+00)
 search vector abs. value=  0.270E-03
 bond charge predicted
       N       E                     dE             d eps       ncg     rms          rms(c)
DAV:   1    -0.628115919355E+02   -0.43741E-05   -0.14438E-03  4480   0.287E-01    0.139E-02
DAV:   2    -0.628115901876E+02    0.17479E-05   -0.26617E-05  5704   0.365E-02    0.800E-03
DAV:   3    -0.628115886931E+02    0.14944E-05   -0.41819E-06  5684   0.134E-02    0.212E-03
DAV:   4    -0.628115886137E+02    0.79417E-07   -0.60145E-07  5468   0.532E-03    0.117E-03
DAV:   5    -0.628115886090E+02    0.46555E-08   -0.10906E-07  5412   0.208E-03    0.565E-04
DAV:   6    -0.628115886080E+02    0.10527E-08   -0.10104E-08  3100   0.769E-04
 200 F= -.62811589E+02 E0= -.62778950E+02  d E =-.105033E-05
 trial-energy change:   -0.000001  1 .order   -0.000001   -0.000005    0.000002
 step:   0.2257(harm=  0.2384)  dis= 0.00016  next Energy=   -62.811589 (dE=-0.142E-05)
 bond charge predicted
       N       E                     dE             d eps       ncg     rms          rms(c)
DAV:   1    -0.628115892750E+02   -0.66592E-06   -0.17624E-04  4480   0.100E-01    0.487E-03
DAV:   2    -0.628115890887E+02    0.18624E-06   -0.32351E-06  5676   0.127E-02    0.281E-03
DAV:   3    -0.628115889659E+02    0.12279E-06   -0.50926E-07  5696   0.467E-03    0.746E-04
DAV:   4    -0.628115889723E+02   -0.64131E-08   -0.73877E-08  5244   0.187E-03
 201 F= -.62811589E+02 E0= -.62778950E+02  d E =-.141469E-05
 curvature:  -2.44 expect dE=-0.171E-04 dE for cont linesearch -0.447E-08
 trial: gam= 0.41452 g(F)=  0.680E-05 g(S)=  0.187E-06 ort = 0.702E-06 (trialstep = 0.323E+00)
 search vector abs. value=  0.539E-04
 bond charge predicted
       N       E                     dE             d eps       ncg     rms          rms(c)
DAV:   1    -0.628115911818E+02   -0.22158E-05   -0.28685E-04  4480   0.129E-01    0.560E-03
DAV:   2    -0.628115910635E+02    0.11830E-06   -0.53264E-06  5852   0.165E-02    0.328E-03
DAV:   3    -0.628115908464E+02    0.21706E-06   -0.56381E-07  5652   0.496E-03    0.943E-04
DAV:   4    -0.628115908281E+02    0.18352E-07   -0.64161E-08  5532   0.185E-03    0.416E-04
DAV:   5    -0.628115908262E+02    0.18179E-08   -0.91145E-09  2924   0.710E-04
 202 F= -.62811591E+02 E0= -.62778953E+02  d E =-.185389E-05
 trial-energy change:   -0.000002  1 .order   -0.000002   -0.000002   -0.000001
 step:   0.7094(harm=  0.7094)  dis= 0.00022  next Energy=   -62.811592 (dE=-0.258E-05)
 bond charge predicted
       N       E                     dE             d eps       ncg     rms          rms(c)
DAV:   1    -0.628115920985E+02   -0.12704E-05   -0.41114E-04  4480   0.155E-01    0.668E-03
DAV:   2    -0.628115919344E+02    0.16408E-06   -0.76456E-06  5852   0.197E-02    0.394E-03
DAV:   3    -0.628115916279E+02    0.30655E-06   -0.81560E-07  5684   0.597E-03    0.114E-03
DAV:   4    -0.628115916059E+02    0.21955E-07   -0.92547E-08  5780   0.222E-03    0.509E-04
DAV:   5    -0.628115916048E+02    0.10834E-08   -0.13139E-08  3120   0.855E-04
 203 F= -.62811592E+02 E0= -.62778956E+02  d E =-.263249E-05
 curvature:  -2.63 expect dE=-0.204E-04 dE for cont linesearch -0.233E-09
 trial: gam= 1.23135 g(F)=  0.698E-05 g(S)=  0.763E-06 ort =-0.692E-07 (trialstep = 0.242E+00)
 search vector abs. value=  0.894E-04
 bond charge predicted
       N       E                     dE             d eps       ncg     rms          rms(c)
DAV:   1    -0.628115936678E+02   -0.20618E-05   -0.27620E-04  4480   0.126E-01    0.520E-03
DAV:   2    -0.628115936311E+02    0.36663E-07   -0.46873E-06  5924   0.153E-02    0.308E-03
DAV:   3    -0.628115934679E+02    0.16320E-06   -0.48591E-07  5540   0.474E-03    0.727E-04
DAV:   4    -0.628115934649E+02    0.29836E-08   -0.65051E-08  5336   0.183E-03
 204 F= -.62811593E+02 E0= -.62778958E+02  d E =-.186009E-05
 trial-energy change:   -0.000002  1 .order   -0.000002   -0.000002   -0.000001
 step:   0.7741(harm=  0.7741)  dis= 0.00036  next Energy=   -62.811595 (dE=-0.297E-05)
 bond charge predicted
       N       E                     dE             d eps       ncg     rms          rms(c)
DAV:   1    -0.628115962334E+02   -0.27655E-05   -0.13413E-03  4480   0.279E-01    0.115E-02
DAV:   2    -0.628115959848E+02    0.24863E-06   -0.22729E-05  5916   0.337E-02    0.680E-03
DAV:   3    -0.628115951504E+02    0.83440E-06   -0.23506E-06  5544   0.104E-02    0.161E-03
DAV:   4    -0.628115951423E+02    0.80800E-08   -0.31716E-07  5524   0.403E-03    0.829E-04
DAV:   5    -0.628115951501E+02   -0.77962E-08   -0.41382E-08  5140   0.137E-03
 205 F= -.62811595E+02 E0= -.62778961E+02  d E =-.354528E-05
 curvature:  -4.52 expect dE=-0.383E-04 dE for cont linesearch -0.360E-08
 trial: gam= 1.03558 g(F)=  0.772E-05 g(S)=  0.774E-06 ort =-0.267E-06 (trialstep = 0.300E+00)
 search vector abs. value=  0.104E-03
 bond charge predicted
       N       E                     dE             d eps       ncg     rms          rms(c)
DAV:   1    -0.628115965226E+02   -0.13803E-05   -0.52664E-04  4480   0.174E-01    0.724E-03
DAV:   2    -0.628115963134E+02    0.20915E-06   -0.10012E-05  5848   0.221E-02    0.428E-03
DAV:   3    -0.628115959917E+02    0.32174E-06   -0.10622E-06  5580   0.697E-03    0.151E-03
DAV:   4    -0.628115959640E+02    0.27691E-07   -0.15190E-07  5732   0.251E-03    0.636E-04
DAV:   5    -0.628115959631E+02    0.89949E-09   -0.16904E-08  3216   0.924E-04
 206 F= -.62811596E+02 E0= -.62778962E+02  d E =-.813006E-06
 trial-energy change:   -0.000001  1 .order   -0.000001   -0.000002    0.000000
 step:   0.2498(harm=  0.2826)  dis= 0.00013  next Energy=   -62.811596 (dE=-0.827E-06)
 bond charge predicted
       N       E                     dE             d eps       ncg     rms          rms(c)
DAV:   1    -0.628115962967E+02   -0.33270E-06   -0.14559E-05  4488   0.290E-02    0.125E-03
DAV:   2    -0.628115962915E+02    0.51828E-08   -0.27854E-07  5816   0.369E-03    0.729E-04
DAV:   3    -0.628115962856E+02    0.59376E-08   -0.26946E-08  3736   0.116E-03
 207 F= -.62811596E+02 E0= -.62778962E+02  d E =-.113548E-05
 curvature:   4.81 expect dE= 0.330E-04 dE for cont linesearch  0.469E-07
 trial: gam= 0.64654 g(F)=  0.671E-05 g(S)=  0.155E-06 ort = 0.101E-05 (trialstep = 0.290E+00)
 search vector abs. value=  0.516E-04
 bond charge predicted
       N       E                     dE             d eps       ncg     rms          rms(c)
DAV:   1    -0.628115976282E+02   -0.13367E-05   -0.26872E-04  4480   0.125E-01    0.482E-03
DAV:   2    -0.628115976319E+02   -0.37132E-08   -0.47157E-06  5836   0.151E-02    0.285E-03
DAV:   3    -0.628115974940E+02    0.13792E-06   -0.31704E-07  5592   0.418E-03    0.966E-04
DAV:   4    -0.628115974875E+02    0.64404E-08   -0.76478E-08  5344   0.186E-03
 208 F= -.62811597E+02 E0= -.62778954E+02  d E =-.120195E-05
 trial-energy change:   -0.000001  1 .order   -0.000002   -0.000002   -0.000001
 step:   0.4711(harm=  0.4711)  dis= 0.00016  next Energy=   -62.811598 (dE=-0.177E-05)
 bond charge predicted
       N       E                     dE             d eps       ncg     rms          rms(c)
DAV:   1    -0.628115978263E+02   -0.33235E-06   -0.10559E-04  4480   0.784E-02    0.307E-03
DAV:   2    -0.628115978317E+02   -0.53724E-08   -0.18707E-06  5880   0.951E-03    0.183E-03
DAV:   3    -0.628115977803E+02    0.51390E-07   -0.12874E-07  5588   0.267E-03    0.630E-04
DAV:   4    -0.628115977788E+02    0.15416E-08   -0.30098E-08  4288   0.120E-03
 209 F= -.62811598E+02 E0= -.62778949E+02  d E =-.149318E-05
 curvature:  -1.61 expect dE=-0.503E-05 dE for cont linesearch -0.105E-09
 trial: gam= 0.68285 g(F)=  0.292E-05 g(S)=  0.193E-06 ort = 0.578E-07 (trialstep = 0.326E+00)
 search vector abs. value=  0.272E-04
 bond charge predicted
       N       E                     dE             d eps       ncg     rms          rms(c)
DAV:   1    -0.628115984633E+02   -0.68300E-06   -0.19641E-04  4480   0.107E-01    0.418E-03
DAV:   2    -0.628115983786E+02    0.84726E-07   -0.34391E-06  5732   0.131E-02    0.249E-03
DAV:   3    -0.628115982636E+02    0.11498E-06   -0.37953E-07  5636   0.426E-03    0.925E-04
DAV:   4    -0.628115982523E+02    0.11290E-07   -0.54064E-08  5140   0.166E-03    0.413E-04
DAV:   5    -0.628115982503E+02    0.20430E-08   -0.85946E-09  2912   0.679E-04
 210 F= -.62811598E+02 E0= -.62778945E+02  d E =-.471502E-06
 trial-energy change:   -0.000000  1 .order   -0.000001   -0.000001    0.000000
 step:   0.3230(harm=  0.3230)  dis= 0.00008  next Energy=   -62.811598 (dE=-0.509E-06)
 bond charge predicted
       N       E                     dE             d eps       ncg     rms          rms(c)
DAV:   1    -0.628115982503E+02    0.20423E-08   -0.16316E-08  2964   0.101E-03    0.892E-05
DAV:   2    -0.628115982502E+02    0.67303E-10   -0.10991E-09  2548   0.269E-04
 211 F= -.62811598E+02 E0= -.62778945E+02  d E =-.471435E-06
 curvature:  -1.40 expect dE=-0.229E-05 dE for cont linesearch -0.200E-09
 trial: gam= 0.48885 g(F)=  0.154E-05 g(S)=  0.935E-07 ort = 0.624E-07 (trialstep = 0.325E+00)
 search vector abs. value=  0.821E-05
 bond charge predicted
       N       E                     dE             d eps       ncg     rms          rms(c)
DAV:   1    -0.628115985279E+02   -0.27767E-06   -0.70733E-05  4480   0.640E-02    0.241E-03
DAV:   2    -0.628115985197E+02    0.82191E-08   -0.12369E-06  5760   0.781E-03    0.143E-03
DAV:   3    -0.628115984975E+02    0.22250E-07   -0.13220E-07  5668   0.248E-03    0.589E-04
DAV:   4    -0.628115984975E+02   -0.57753E-10   -0.19057E-08  4192   0.937E-04
 212 F= -.62811598E+02 E0= -.62778942E+02  d E =-.247322E-06
 trial-energy change:   -0.000000  1 .order   -0.000000   -0.000001    0.000000
 step:   0.2868(harm=  0.2868)  dis= 0.00005  next Energy=   -62.811598 (dE=-0.239E-06)
 bond charge predicted
       N       E                     dE             d eps       ncg     rms          rms(c)
DAV:   1    -0.628115985065E+02   -0.90004E-08   -0.10128E-06  4524   0.766E-03    0.289E-04
DAV:   2    -0.628115985059E+02    0.54206E-09   -0.17323E-08  3920   0.945E-04
 213 F= -.62811599E+02 E0= -.62778943E+02  d E =-.255722E-06
 curvature:  -0.71 expect dE=-0.560E-06 dE for cont linesearch -0.256E-09
 trial: gam= 0.51165 g(F)=  0.742E-06 g(S)=  0.518E-07 ort =-0.546E-07 (trialstep = 0.318E+00)
 search vector abs. value=  0.289E-05
 bond charge predicted
       N       E                     dE             d eps       ncg     rms          rms(c)
DAV:   1    -0.628115986743E+02   -0.16780E-06   -0.25094E-05  4480   0.381E-02    0.133E-03
DAV:   2    -0.628115986676E+02    0.66680E-08   -0.39631E-07  5668   0.447E-03    0.810E-04
DAV:   3    -0.628115986557E+02    0.11931E-07   -0.53480E-08  5328   0.161E-03    0.244E-04
DAV:   4    -0.628115986571E+02   -0.14725E-08   -0.86821E-09  2820   0.682E-04
 214 F= -.62811599E+02 E0= -.62778944E+02  d E =-.151216E-06
 trial-energy change:   -0.000000  1 .order   -0.000000   -0.000000   -0.000000
 step:   0.4254(harm=  0.4254)  dis= 0.00006  next Energy=   -62.811599 (dE=-0.163E-06)
 bond charge predicted
       N       E                     dE             d eps       ncg     rms          rms(c)
DAV:   1    -0.628115986701E+02   -0.14435E-07   -0.28841E-06  4488   0.130E-02    0.477E-04
DAV:   2    -0.628115986683E+02    0.17783E-08   -0.45320E-08  5364   0.153E-03
 215 F= -.62811599E+02 E0= -.62778944E+02  d E =-.162400E-06
 curvature:  -0.80 expect dE=-0.409E-06 dE for cont linesearch -0.463E-09
 trial: gam= 0.57724 g(F)=  0.414E-06 g(S)=  0.966E-07 ort = 0.409E-07 (trialstep = 0.339E+00)
 search vector abs. value=  0.152E-05
 bond charge predicted
       N       E                     dE             d eps       ncg     rms          rms(c)
DAV:   1    -0.628115987825E+02   -0.11244E-06   -0.14140E-05  4480   0.287E-02    0.130E-03
DAV:   2    -0.628115987624E+02    0.20192E-07   -0.30461E-07  5704   0.396E-03    0.736E-04
DAV:   3    -0.628115987606E+02    0.17685E-08   -0.38903E-08  5064   0.133E-03
 216 F= -.62811599E+02 E0= -.62778944E+02  d E =-.922557E-07
 trial-energy change:   -0.000000  1 .order   -0.000000   -0.000000   -0.000000
 step:   0.3580(harm=  0.3580)  dis= 0.00004  next Energy=   -62.811599 (dE=-0.956E-07)
 bond charge predicted
       N       E                     dE             d eps       ncg     rms          rms(c)
DAV:   1    -0.628115987633E+02   -0.96998E-09   -0.40375E-08  4804   0.159E-03    0.181E-04
DAV:   2    -0.628115987649E+02   -0.15466E-08   -0.10320E-09  2496   0.252E-04
 217 F= -.62811599E+02 E0= -.62778944E+02  d E =-.965408E-07
 curvature:  -0.51 expect dE=-0.183E-06 dE for cont linesearch -0.422E-09
 trial: gam= 0.78463 g(F)=  0.318E-06 g(S)=  0.413E-07 ort =-0.355E-07 (trialstep = 0.343E+00)
 search vector abs. value=  0.124E-05
 reached required accuracy - stopping structural energy minimisation
 writing wavefunctions
Sun Mar  6 01:36:59 CST 2022
