Fri Dec 24 00:38:30 CST 2021
 running on   48 total cores
 distrk:  each k-point on   48 cores,    1 groups
 distr:  one band on   24 cores,    2 groups
 using from now: INCAR     
 vasp.5.3.5 31Mar14 (build Jan 11 2016 19:50:55) complex                        
  
 POSCAR found type information on POSCAR  Ga N  O  Zn
 POSCAR found :  4 types and       8 ions
 scaLAPACK will be used

 ----------------------------------------------------------------------------- 
|                                                                             |
|           W    W    AA    RRRRR   N    N  II  N    N   GGGG   !!!           |
|           W    W   A  A   R    R  NN   N  II  NN   N  G    G  !!!           |
|           W    W  A    A  R    R  N N  N  II  N N  N  G       !!!           |
|           W WW W  AAAAAA  RRRRR   N  N N  II  N  N N  G  GGG   !            |
|           WW  WW  A    A  R   R   N   NN  II  N   NN  G    G                |
|           W    W  A    A  R    R  N    N  II  N    N   GGGG   !!!           |
|                                                                             |
|      For optimal performance we recommend to set                            |
|        NCORE= 4 - approx SQRT( number of cores)                             |
|      NCORE specifies how many cores store one orbital (NPAR=cpu/NCORE).     |
|      This setting can  greatly improve the performance of VASP for DFT.     |
|      The default, NPAR=number of cores might be grossly inefficient         |
|      on modern multi-core architectures or massively parallel machines.     |
|      Do your own testing !!!!                                               |
|      Unfortunately you need to use the default for GW and RPA calculations. |
|      (for HF NCORE is supported but not extensively tested yet)             |
|                                                                             |
 ----------------------------------------------------------------------------- 

 LDA part: xc-table for Pade appr. of Perdew
 POSCAR, INCAR and KPOINTS ok, starting setup
 WARNING: small aliasing (wrap around) errors must be expected
 FFT: planning ...
 WAVECAR not read
 entering main loop
       N       E                     dE             d eps       ncg     rms          rms(c)
DAV:   1     0.886923826933E+03    0.88692E+03   -0.42219E+04 10140   0.325E+03
DAV:   2     0.141509997846E+03   -0.74541E+03   -0.71770E+03  9960   0.771E+02
DAV:   3    -0.273233841412E+02   -0.16883E+03   -0.16421E+03 11308   0.263E+02
DAV:   4    -0.419018136254E+02   -0.14578E+02   -0.14366E+02 12012   0.777E+01
DAV:   5    -0.423394981883E+02   -0.43768E+00   -0.43549E+00 11512   0.133E+01    0.143E+01
DAV:   6    -0.376791539457E+02    0.46603E+01   -0.19230E+01 18232   0.536E+01    0.743E+00
DAV:   7    -0.377928549082E+02   -0.11370E+00   -0.40158E+00 10532   0.168E+01    0.455E+00
DAV:   8    -0.377741589715E+02    0.18696E-01   -0.13850E+00 15184   0.778E+00    0.200E+00
DAV:   9    -0.377105577824E+02    0.63601E-01   -0.24561E-01 13684   0.488E+00    0.680E-01
DAV:  10    -0.377103392596E+02    0.21852E-03   -0.87784E-02 10888   0.176E+00    0.231E-01
DAV:  11    -0.377108781314E+02   -0.53887E-03   -0.78792E-03 12884   0.735E-01    0.106E-01
DAV:  12    -0.377110369342E+02   -0.15880E-03   -0.11461E-03 10864   0.294E-01    0.420E-02
DAV:  13    -0.377110570213E+02   -0.20087E-04   -0.38858E-04 14808   0.173E-01    0.294E-02
DAV:  14    -0.377110550230E+02    0.19983E-05   -0.95633E-05 13188   0.106E-01    0.118E-02
DAV:  15    -0.377110576538E+02   -0.26308E-05   -0.18062E-05 11244   0.386E-02    0.470E-03
DAV:  16    -0.377110591990E+02   -0.15452E-05   -0.50163E-06 12360   0.191E-02    0.273E-03
DAV:  17    -0.377110594672E+02   -0.26820E-06   -0.76663E-07 11452   0.117E-02    0.114E-03
DAV:  18    -0.377110594738E+02   -0.65729E-08   -0.32026E-07 12260   0.459E-03    0.645E-04
DAV:  19    -0.377110594692E+02    0.45843E-08   -0.83756E-08 11484   0.302E-03
   1 F= -.37711059E+02 E0= -.37691454E+02  d E =-.377111E+02
 curvature:   0.00 expect dE= 0.000E+00 dE for cont linesearch  0.000E+00
 trial: gam= 0.00000 g(F)=  0.575E-01 g(S)=  0.400E+00 ort = 0.000E+00 (trialstep = 0.100E+01)
 search vector abs. value=  0.457E+00
 bond charge predicted
       N       E                     dE             d eps       ncg     rms          rms(c)
DAV:   1    -0.419637504163E+02   -0.42527E+01   -0.83248E+01 12064   0.111E+02    0.141E+01
DAV:   2    -0.386319373271E+02    0.33318E+01   -0.14167E+01 12952   0.442E+01    0.565E+00
DAV:   3    -0.381401654779E+02    0.49177E+00   -0.12606E+00 12940   0.115E+01    0.279E+00
DAV:   4    -0.379727404377E+02    0.16743E+00   -0.22372E-01 14196   0.560E+00    0.735E-01
DAV:   5    -0.379642410040E+02    0.84994E-02   -0.70914E-02 10760   0.286E+00    0.215E-01
DAV:   6    -0.379645280764E+02   -0.28707E-03   -0.12157E-02 11668   0.125E+00    0.150E-01
DAV:   7    -0.379644411502E+02    0.86926E-04   -0.14574E-03 12152   0.779E-01    0.787E-02
DAV:   8    -0.379644726502E+02   -0.31500E-04   -0.69537E-04 15176   0.232E-01    0.254E-02
DAV:   9    -0.379644852799E+02   -0.12630E-04   -0.28104E-04 12568   0.267E-01    0.259E-02
DAV:  10    -0.379644837088E+02    0.15711E-05   -0.38648E-05 11676   0.849E-02    0.983E-03
DAV:  11    -0.379644840352E+02   -0.32645E-06   -0.95834E-06 15968   0.340E-02    0.272E-03
DAV:  12    -0.379644843913E+02   -0.35603E-06   -0.26707E-06 12196   0.201E-02    0.181E-03
DAV:  13    -0.379644844841E+02   -0.92793E-07   -0.89150E-07 10740   0.113E-02    0.909E-04
DAV:  14    -0.379644844904E+02   -0.63260E-08   -0.10645E-07 13176   0.434E-03    0.249E-04
DAV:  15    -0.379644844863E+02    0.40636E-08   -0.28847E-08  9436   0.145E-03
   2 F= -.37964484E+02 E0= -.37943880E+02  d E =-.253425E+00
 trial-energy change:   -0.253425  1 .order   -0.263700   -0.457228   -0.070172
 step:   1.2253(harm=  1.1813)  dis= 0.02845  next Energy=   -37.972271 (dE=-0.261E+00)
 bond charge predicted
       N       E                     dE             d eps       ncg     rms          rms(c)
DAV:   1    -0.381766501274E+02   -0.21217E+00   -0.40618E+00 12548   0.227E+01    0.318E+00
DAV:   2    -0.380021612735E+02    0.17449E+00   -0.77405E-01 12740   0.123E+01    0.121E+00
DAV:   3    -0.379791738267E+02    0.22987E-01   -0.63054E-02 13732   0.252E+00    0.608E-01
DAV:   4    -0.379709755690E+02    0.81983E-02   -0.12404E-02 13988   0.124E+00    0.175E-01
DAV:   5    -0.379703769820E+02    0.59859E-03   -0.30474E-03 11328   0.734E-01    0.540E-02
DAV:   6    -0.379703841901E+02   -0.72081E-05   -0.69831E-04 10844   0.304E-01    0.312E-02
DAV:   7    -0.379703870145E+02   -0.28244E-05   -0.11598E-04 12460   0.171E-01    0.175E-02
DAV:   8    -0.379703887071E+02   -0.16926E-05   -0.33235E-05 11952   0.561E-02    0.685E-03
DAV:   9    -0.379703898764E+02   -0.11693E-05   -0.92094E-06 12704   0.277E-02    0.421E-03
DAV:  10    -0.379703899400E+02   -0.63562E-07   -0.13036E-06 14216   0.174E-02    0.129E-03
DAV:  11    -0.379703900202E+02   -0.80258E-07   -0.44229E-07 13552   0.475E-03    0.699E-04
DAV:  12    -0.379703900264E+02   -0.62164E-08   -0.81217E-08 12432   0.312E-03
   3 F= -.37970390E+02 E0= -.37949576E+02  d E =-.259331E+00
 curvature:  -0.56 expect dE=-0.637E+00 dE for cont linesearch -0.521E-04
 trial: gam= 2.51847 g(F)=  0.107E+01 g(S)=  0.790E-01 ort =-0.655E-02 (trialstep = 0.119E+00)
 search vector abs. value=  0.401E+01
 bond charge predicted
       N       E                     dE             d eps       ncg     rms          rms(c)
DAV:   1    -0.384703832182E+02   -0.49999E+00   -0.99273E+00 12984   0.369E+01    0.481E+00
DAV:   2    -0.380933136567E+02    0.37707E+00   -0.18393E+00 12324   0.181E+01    0.185E+00
DAV:   3    -0.380441021965E+02    0.49211E-01   -0.15248E-01 13828   0.377E+00    0.919E-01
DAV:   4    -0.380251489705E+02    0.18953E-01   -0.22356E-02 13916   0.196E+00    0.216E-01
DAV:   5    -0.380244060903E+02    0.74288E-03   -0.80342E-03 11636   0.119E+00    0.642E-02
DAV:   6    -0.380244655645E+02   -0.59474E-04   -0.16583E-03 10984   0.414E-01    0.461E-02
DAV:   7    -0.380244687119E+02   -0.31474E-05   -0.19254E-04 12036   0.192E-01    0.297E-02
DAV:   8    -0.380244725406E+02   -0.38287E-05   -0.63268E-05 15996   0.853E-02    0.108E-02
DAV:   9    -0.380244741186E+02   -0.15780E-05   -0.25816E-05 11944   0.497E-02    0.592E-03
DAV:  10    -0.380244742371E+02   -0.11856E-06   -0.35085E-06 11120   0.198E-02    0.280E-03
DAV:  11    -0.380244743735E+02   -0.13640E-06   -0.10145E-06 13388   0.749E-03    0.115E-03
DAV:  12    -0.380244744589E+02   -0.85362E-07   -0.21516E-07 12356   0.424E-03    0.566E-04
DAV:  13    -0.380244744663E+02   -0.74388E-08   -0.81125E-08 10828   0.342E-03
   4 F= -.38024474E+02 E0= -.38003527E+02  d E =-.540844E-01
 trial-energy change:   -0.054084  1 .order   -0.056471   -0.134400    0.021457
 step:   0.1013(harm=  0.1027)  dis= 0.01231  next Energy=   -38.026085 (dE=-0.557E-01)
 bond charge predicted
       N       E                     dE             d eps       ncg     rms          rms(c)
DAV:   1    -0.380359942223E+02   -0.11520E-01   -0.21717E-01 12724   0.541E+00    0.724E-01
DAV:   2    -0.380275882046E+02    0.84060E-02   -0.44763E-02 12220   0.290E+00    0.272E-01
DAV:   3    -0.380265336350E+02    0.10546E-02   -0.35239E-03 14532   0.565E-01    0.134E-01
DAV:   4    -0.380261132662E+02    0.42037E-03   -0.43576E-04 13980   0.303E-01    0.344E-02
DAV:   5    -0.380260949696E+02    0.18297E-04   -0.18529E-04 11812   0.152E-01    0.935E-03
DAV:   6    -0.380260959003E+02   -0.93069E-06   -0.30299E-05 10868   0.558E-02    0.645E-03
DAV:   7    -0.380260957955E+02    0.10480E-06   -0.32146E-06 12312   0.299E-02    0.394E-03
DAV:   8    -0.380260957368E+02    0.58729E-07   -0.12774E-06 15772   0.108E-02    0.144E-03
DAV:   9    -0.380260957282E+02    0.86097E-08   -0.50020E-07 11700   0.801E-03    0.907E-04
DAV:  10    -0.380260956998E+02    0.28366E-07   -0.60777E-08 10748   0.240E-03    0.387E-04
DAV:  11    -0.380260956857E+02    0.14114E-07   -0.15478E-08  7600   0.116E-03    0.148E-04
DAV:  12    -0.380260956763E+02    0.93455E-08   -0.57646E-09  5716   0.765E-04
   5 F= -.38026096E+02 E0= -.38005149E+02  d E =-.557056E-01
 curvature:  -0.18 expect dE=-0.172E-01 dE for cont linesearch -0.503E-08
 trial: gam= 0.09067 g(F)=  0.408E-01 g(S)=  0.543E-01 ort =-0.334E-03 (trialstep = 0.116E+00)
 search vector abs. value=  0.128E+00
 bond charge predicted
       N       E                     dE             d eps       ncg     rms          rms(c)
DAV:   1    -0.380387122923E+02   -0.12617E-01   -0.23362E-01  9932   0.283E+00    0.339E-01
DAV:   2    -0.380376540368E+02    0.10583E-02   -0.66996E-03 12256   0.102E+00    0.202E-01
DAV:   3    -0.380368640341E+02    0.79000E-03   -0.11414E-03 13548   0.645E-01    0.504E-02
DAV:   4    -0.380368604299E+02    0.36042E-05   -0.41731E-04 10756   0.340E-01    0.131E-02
DAV:   5    -0.380368669665E+02   -0.65366E-05   -0.89063E-05 11444   0.734E-02    0.102E-02
DAV:   6    -0.380368662943E+02    0.67222E-06   -0.58767E-06 11744   0.269E-02    0.452E-03
DAV:   7    -0.380368663424E+02   -0.48110E-07   -0.13127E-06 11744   0.143E-02    0.145E-03
DAV:   8    -0.380368663750E+02   -0.32620E-07   -0.24648E-07 12456   0.421E-03    0.763E-04
DAV:   9    -0.380368663826E+02   -0.76107E-08   -0.39775E-08  9260   0.280E-03
   6 F= -.38036866E+02 E0= -.38015855E+02  d E =-.107707E-01
 ZBRENT: can't locate minimum, use default step
 trial-energy change:   -0.010771  1 .order   -0.010774   -0.010975   -0.010574
 step:   0.4622(harm=  3.1582)  dis= 0.01103  next Energy=   -38.176092 (dE=-0.150E+00)
 bond charge predicted
       N       E                     dE             d eps       ncg     rms          rms(c)
DAV:   1    -0.380833290563E+02   -0.46463E-01   -0.20991E+00  9932   0.851E+00    0.102E+00
DAV:   2    -0.380739017862E+02    0.94273E-02   -0.60679E-02 12268   0.303E+00    0.604E-01
DAV:   3    -0.380668297868E+02    0.70720E-02   -0.10270E-02 13584   0.189E+00    0.152E-01
DAV:   4    -0.380667755500E+02    0.54237E-04   -0.35478E-03 10748   0.101E+00    0.392E-02
DAV:   5    -0.380668353319E+02   -0.59782E-04   -0.80714E-04 11484   0.226E-01    0.307E-02
DAV:   6    -0.380668305362E+02    0.47957E-05   -0.56079E-05 11696   0.920E-02    0.154E-02
DAV:   7    -0.380668307971E+02   -0.26087E-06   -0.13439E-05 11500   0.415E-02    0.475E-03
DAV:   8    -0.380668310666E+02   -0.26952E-06   -0.25966E-06 13744   0.141E-02    0.224E-03
DAV:   9    -0.380668310933E+02   -0.26656E-07   -0.46661E-07 11064   0.923E-03    0.148E-03
DAV:  10    -0.380668311151E+02   -0.21847E-07   -0.12980E-07 11308   0.642E-03    0.244E-04
DAV:  11    -0.380668311146E+02    0.55888E-09   -0.21602E-08  7164   0.177E-03
   7 F= -.38066831E+02 E0= -.38045631E+02  d E =-.407354E-01
 curvature:  -0.46 expect dE=-0.325E-01 dE for cont linesearch -0.235E-01
 ZBRENT: increasing intervall
 opt :   1.1554  next Energy=   -38.115956 (dE=-0.899E-01)
 bond charge predicted
       N       E                     dE             d eps       ncg     rms          rms(c)
DAV:   1    -0.381809206566E+02   -0.11409E+00   -0.83679E+00  9928   0.170E+01    0.203E+00
DAV:   2    -0.381440908146E+02    0.36830E-01   -0.24482E-01 12128   0.601E+00    0.121E+00
DAV:   3    -0.381161600650E+02    0.27931E-01   -0.42583E-02 13456   0.374E+00    0.308E-01
DAV:   4    -0.381158167197E+02    0.34335E-03   -0.13639E-02 10804   0.201E+00    0.795E-02
DAV:   5    -0.381160584702E+02   -0.24175E-03   -0.32915E-03 11540   0.463E-01    0.616E-02
DAV:   6    -0.381160460328E+02    0.12437E-04   -0.26191E-04 11732   0.202E-01    0.354E-02
DAV:   7    -0.381160455019E+02    0.53099E-06   -0.62225E-05 11688   0.720E-02    0.111E-02
DAV:   8    -0.381160466922E+02   -0.11904E-05   -0.11117E-05 14888   0.282E-02    0.456E-03
DAV:   9    -0.381160466303E+02    0.61872E-07   -0.21055E-06 10792   0.189E-02    0.327E-03
DAV:  10    -0.381160467378E+02   -0.10741E-06   -0.62643E-07 11752   0.118E-02    0.582E-04
DAV:  11    -0.381160467372E+02    0.57071E-09   -0.10351E-07 11044   0.428E-03    0.341E-04
DAV:  12    -0.381160467405E+02   -0.33147E-08   -0.15108E-08  6316   0.154E-03
   8 F= -.38116047E+02 E0= -.38094501E+02  d E =-.899511E-01
 curvature:  -0.95 expect dE=-0.470E-01 dE for cont linesearch -0.272E-01
 ZBRENT: increasing intervall
 opt :   2.5419  next Energy=   -38.171144 (dE=-0.145E+00)
 bond charge predicted
       N       E                     dE             d eps       ncg     rms          rms(c)
DAV:   1    -0.384209200000E+02   -0.30487E+00   -0.33282E+01  9936   0.342E+01    0.404E+00
DAV:   2    -0.382827327478E+02    0.13819E+00   -0.10198E+00 12028   0.120E+01    0.241E+00
DAV:   3    -0.381733321192E+02    0.10940E+00   -0.17151E-01 13192   0.737E+00    0.657E-01
DAV:   4    -0.381706763906E+02    0.26557E-02   -0.54244E-02 10972   0.395E+00    0.168E-01
DAV:   5    -0.381716097998E+02   -0.93341E-03   -0.14004E-02 11784   0.102E+00    0.127E-01
DAV:   6    -0.381716100903E+02   -0.29050E-06   -0.15419E-03 11300   0.496E-01    0.780E-02
DAV:   7    -0.381716049899E+02    0.51003E-05   -0.31117E-04 12212   0.139E-01    0.303E-02
DAV:   8    -0.381716091542E+02   -0.41643E-05   -0.52350E-05 14376   0.677E-02    0.886E-03
DAV:   9    -0.381716087356E+02    0.41857E-06   -0.13350E-05 11372   0.549E-02    0.652E-03
DAV:  10    -0.381716090082E+02   -0.27257E-06   -0.27797E-06 11784   0.249E-02    0.181E-03
DAV:  11    -0.381716090703E+02   -0.62110E-07   -0.61701E-07 11232   0.681E-03    0.872E-04
DAV:  12    -0.381716090764E+02   -0.60490E-08   -0.70972E-08 12296   0.318E-03
   9 F= -.38171609E+02 E0= -.38149569E+02  d E =-.145513E+00
 curvature:  -1.93 expect dE=-0.115E+00 dE for cont linesearch -0.526E-02
 ZBRENT: extrapolating
 opt :   3.1622  next Energy=   -38.177405 (dE=-0.151E+00)
 bond charge predicted
       N       E                     dE             d eps       ncg     rms          rms(c)
DAV:   1    -0.382271137568E+02   -0.55505E-01   -0.66391E+00  9940   0.151E+01    0.179E+00
DAV:   2    -0.381994625891E+02    0.27651E-01   -0.19272E-01 12088   0.550E+00    0.107E+00
DAV:   3    -0.381775584648E+02    0.21904E-01   -0.36119E-02 13088   0.365E+00    0.281E-01
DAV:   4    -0.381773349744E+02    0.22349E-03   -0.11333E-02 10884   0.196E+00    0.727E-02
DAV:   5    -0.381775294282E+02   -0.19445E-03   -0.27375E-03 11860   0.412E-01    0.528E-02
DAV:   6    -0.381775275218E+02    0.19065E-05   -0.24896E-04 11624   0.173E-01    0.351E-02
DAV:   7    -0.381775256755E+02    0.18463E-05   -0.64557E-05 12060   0.134E-01    0.882E-03
DAV:   8    -0.381775267762E+02   -0.11007E-05   -0.16260E-05 12652   0.511E-02    0.493E-03
DAV:   9    -0.381775267933E+02   -0.17118E-07   -0.23166E-06 12528   0.115E-02    0.295E-03
DAV:  10    -0.381775268696E+02   -0.76336E-07   -0.53867E-07 13096   0.717E-03    0.925E-04
DAV:  11    -0.381775268639E+02    0.57785E-08   -0.14922E-07 11208   0.614E-03    0.500E-04
DAV:  12    -0.381775268587E+02    0.52073E-08   -0.20739E-08  7500   0.297E-03
  10 F= -.38177527E+02 E0= -.38155335E+02  d E =-.151431E+00
 curvature:  -2.12 expect dE=-0.202E+00 dE for cont linesearch -0.636E-05
 trial: gam= 0.85300 g(F)=  0.912E-01 g(S)=  0.388E-02 ort =-0.619E-03 (trialstep = 0.496E+00)
 search vector abs. value=  0.187E+00
 bond charge predicted
       N       E                     dE             d eps       ncg     rms          rms(c)
DAV:   1    -0.382129449592E+02   -0.35418E-01   -0.72396E+00  9880   0.160E+01    0.158E+00
DAV:   2    -0.382026462044E+02    0.10299E-01   -0.28781E-01 11412   0.557E+00    0.974E-01
DAV:   3    -0.381868737044E+02    0.15773E-01   -0.30476E-02 11896   0.208E+00    0.391E-01
DAV:   4    -0.381850043348E+02    0.18694E-02   -0.12366E-02 10480   0.108E+00    0.103E-01
DAV:   5    -0.381850692211E+02   -0.64886E-04   -0.24598E-03 11840   0.559E-01    0.570E-02
DAV:   6    -0.381850607378E+02    0.84833E-05   -0.27973E-04 11496   0.300E-01    0.287E-02
DAV:   7    -0.381850622785E+02   -0.15407E-05   -0.68178E-05 11904   0.114E-01    0.965E-03
DAV:   8    -0.381850638047E+02   -0.15262E-05   -0.17372E-05 13720   0.319E-02    0.428E-03
DAV:   9    -0.381850637829E+02    0.21827E-07   -0.19026E-06 10852   0.127E-02    0.260E-03
DAV:  10    -0.381850637315E+02    0.51353E-07   -0.73840E-07 14504   0.908E-03    0.106E-03
DAV:  11    -0.381850637146E+02    0.16898E-07   -0.17393E-07 11808   0.613E-03    0.433E-04
DAV:  12    -0.381850637105E+02    0.40991E-08   -0.29465E-08  8412   0.181E-03
  11 F= -.38185064E+02 E0= -.38163121E+02  d E =-.753685E-02
 trial-energy change:   -0.007537  1 .order   -0.006993   -0.046865    0.032879
 step:   0.2962(harm=  0.2913)  dis= 0.00877  next Energy=   -38.191645 (dE=-0.141E-01)
 bond charge predicted
       N       E                     dE             d eps       ncg     rms          rms(c)
DAV:   1    -0.381962816333E+02   -0.11218E-01   -0.11713E+00  9876   0.650E+00    0.641E-01
DAV:   2    -0.381945115273E+02    0.17701E-02   -0.48163E-02 11468   0.235E+00    0.395E-01
DAV:   3    -0.381920377886E+02    0.24737E-02   -0.50019E-03 12680   0.848E-01    0.166E-01
DAV:   4    -0.381916792713E+02    0.35852E-03   -0.18487E-03 10536   0.431E-01    0.405E-02
DAV:   5    -0.381916976207E+02   -0.18349E-04   -0.41610E-04 11724   0.242E-01    0.219E-02
DAV:   6    -0.381916977425E+02   -0.12182E-06   -0.48229E-05 11152   0.119E-01    0.112E-02
DAV:   7    -0.381916982760E+02   -0.53350E-06   -0.10955E-05 11724   0.493E-02    0.399E-03
DAV:   8    -0.381916985735E+02   -0.29754E-06   -0.26385E-06 13592   0.143E-02    0.177E-03
DAV:   9    -0.381916986120E+02   -0.38507E-07   -0.29749E-07 10712   0.570E-03    0.963E-04
DAV:  10    -0.381916986365E+02   -0.24489E-07   -0.97246E-08 12744   0.316E-03    0.320E-04
DAV:  11    -0.381916986411E+02   -0.45557E-08   -0.14142E-08  5956   0.145E-03
  12 F= -.38191699E+02 E0= -.38169633E+02  d E =-.141718E-01
 curvature:  -0.29 expect dE=-0.542E-01 dE for cont linesearch -0.872E-09
 trial: gam= 2.02761 g(F)=  0.175E+00 g(S)=  0.131E-01 ort =-0.238E-04 (trialstep = 0.891E-01)
 search vector abs. value=  0.957E+00
 bond charge predicted
       N       E                     dE             d eps       ncg     rms          rms(c)
DAV:   1    -0.382097422461E+02   -0.18044E-01   -0.12454E+00  9900   0.632E+00    0.496E-01
DAV:   2    -0.382090832121E+02    0.65903E-03   -0.28007E-02 12500   0.166E+00    0.303E-01
DAV:   3    -0.382074577640E+02    0.16254E-02   -0.24570E-03 13364   0.839E-01    0.770E-02
DAV:   4    -0.382074440705E+02    0.13693E-04   -0.89383E-04 10740   0.482E-01    0.208E-02
DAV:   5    -0.382074591782E+02   -0.15108E-04   -0.19656E-04 11668   0.120E-01    0.167E-02
DAV:   6    -0.382074581487E+02    0.10295E-05   -0.10959E-05 11776   0.512E-02    0.786E-03
DAV:   7    -0.382074583489E+02   -0.20022E-06   -0.37154E-06 12164   0.223E-02    0.222E-03
DAV:   8    -0.382074583588E+02   -0.98685E-08   -0.70148E-07 12188   0.646E-03    0.114E-03
DAV:   9    -0.382074583645E+02   -0.56434E-08   -0.85208E-08 11172   0.378E-03
  13 F= -.38207458E+02 E0= -.38185275E+02  d E =-.157597E-01
 ZBRENT: can't locate minimum, use default step
 trial-energy change:   -0.015760  1 .order   -0.015747   -0.016748   -0.014747
 step:   0.3563(harm=  0.7456)  dis= 0.02857  next Energy=   -38.261781 (dE=-0.701E-01)
 bond charge predicted
       N       E                     dE             d eps       ncg     rms          rms(c)
DAV:   1    -0.382612795776E+02   -0.53821E-01   -0.11235E+01  9904   0.190E+01    0.149E+00
DAV:   2    -0.382567747338E+02    0.45048E-02   -0.26183E-01 12420   0.495E+00    0.912E-01
DAV:   3    -0.382420186944E+02    0.14756E-01   -0.21722E-02 13128   0.249E+00    0.238E-01
DAV:   4    -0.382418418834E+02    0.17681E-03   -0.82666E-03 10636   0.136E+00    0.650E-02
DAV:   5    -0.382419716050E+02   -0.12972E-03   -0.18402E-03 11700   0.416E-01    0.541E-02
DAV:   6    -0.382419638117E+02    0.77933E-05   -0.13415E-04 11988   0.192E-01    0.291E-02
DAV:   7    -0.382419648845E+02   -0.10728E-05   -0.43930E-05 11152   0.530E-02    0.765E-03
DAV:   8    -0.382419650238E+02   -0.13929E-06   -0.62491E-06 12808   0.278E-02    0.354E-03
DAV:   9    -0.382419650520E+02   -0.28244E-07   -0.14024E-06 11296   0.155E-02    0.222E-03
DAV:  10    -0.382419650816E+02   -0.29553E-07   -0.42463E-07 11880   0.920E-03    0.481E-04
DAV:  11    -0.382419650847E+02   -0.31155E-08   -0.60019E-08 10080   0.254E-03
  14 F= -.38241965E+02 E0= -.38219459E+02  d E =-.502664E-01
 curvature:  -1.23 expect dE=-0.393E-01 dE for cont linesearch -0.104E-01
 ZBRENT: increasing intervall
 opt :   0.8909  next Energy=   -38.249741 (dE=-0.580E-01)
 bond charge predicted
       N       E                     dE             d eps       ncg     rms          rms(c)
DAV:   1    -0.383039708105E+02   -0.62006E-01   -0.45250E+01  9920   0.384E+01    0.299E+00
DAV:   2    -0.383018796385E+02    0.20912E-02   -0.11965E+00 12228   0.102E+01    0.185E+00
DAV:   3    -0.382434034604E+02    0.58476E-01   -0.90705E-02 12884   0.527E+00    0.600E-01
DAV:   4    -0.382406287607E+02    0.27747E-02   -0.38111E-02 10600   0.261E+00    0.143E-01
DAV:   5    -0.382411340997E+02   -0.50534E-03   -0.85940E-03 11588   0.972E-01    0.110E-01
DAV:   6    -0.382411293722E+02    0.47274E-05   -0.84321E-04 11404   0.442E-01    0.601E-02
DAV:   7    -0.382411335420E+02   -0.41698E-05   -0.21547E-04 11360   0.143E-01    0.188E-02
DAV:   8    -0.382411352651E+02   -0.17231E-05   -0.33510E-05 12224   0.578E-02    0.716E-03
DAV:   9    -0.382411353711E+02   -0.10594E-06   -0.75190E-06 11712   0.444E-02    0.453E-03
DAV:  10    -0.382411354924E+02   -0.12131E-06   -0.16593E-06 10792   0.178E-02    0.120E-03
DAV:  11    -0.382411355339E+02   -0.41499E-07   -0.44954E-07 12892   0.545E-03    0.493E-04
DAV:  12    -0.382411355394E+02   -0.55816E-08   -0.30743E-08  8424   0.272E-03
  15 F= -.38241136E+02 E0= -.38218132E+02  d E =-.494369E-01
 curvature:  -0.92 expect dE=-0.165E+00 dE for cont linesearch -0.104E-01
 ZBRENT: bracketing found
 ZBRENT: interpolating
 opt :   0.6045  next Energy=   -38.253138 (dE=-0.614E-01)
 bond charge predicted
       N       E                     dE             d eps       ncg     rms          rms(c)
DAV:   1    -0.382770072315E+02   -0.35872E-01   -0.12928E+01  9952   0.205E+01    0.162E+00
DAV:   2    -0.382705981523E+02    0.64091E-02   -0.31686E-01 11648   0.558E+00    0.985E-01
DAV:   3    -0.382550389480E+02    0.15559E-01   -0.36296E-02 13620   0.277E+00    0.308E-01
DAV:   4    -0.382541407278E+02    0.89822E-03   -0.92783E-03 11004   0.158E+00    0.748E-02
DAV:   5    -0.382543490659E+02   -0.20834E-03   -0.26961E-03 11588   0.454E-01    0.549E-02
DAV:   6    -0.382543436644E+02    0.54015E-05   -0.21387E-04 11188   0.228E-01    0.329E-02
DAV:   7    -0.382543433514E+02    0.31294E-06   -0.51566E-05 12252   0.101E-01    0.118E-02
DAV:   8    -0.382543440739E+02   -0.72243E-06   -0.14277E-05 13368   0.523E-02    0.395E-03
DAV:   9    -0.382543441133E+02   -0.39457E-07   -0.37202E-06 12188   0.222E-02    0.262E-03
DAV:  10    -0.382543441417E+02   -0.28406E-07   -0.73130E-07 11388   0.732E-03    0.121E-03
DAV:  11    -0.382543441512E+02   -0.94346E-08   -0.11182E-07 13152   0.258E-03    0.319E-04
DAV:  12    -0.382543441573E+02   -0.61168E-08   -0.12315E-08  6152   0.192E-03
  16 F= -.38254344E+02 E0= -.38231584E+02  d E =-.626455E-01
 curvature:  -0.99 expect dE=-0.242E-01 dE for cont linesearch -0.449E-04
 ZBRENT: interpolating
 opt :   0.6229  next Energy=   -38.254408 (dE=-0.627E-01)
 bond charge predicted
       N       E                     dE             d eps       ncg     rms          rms(c)
DAV:   1    -0.382545149942E+02   -0.17084E-03   -0.53352E-02  9928   0.131E+00    0.103E-01
DAV:   2    -0.382544862705E+02    0.28724E-04   -0.12249E-03 12372   0.346E-01    0.628E-02
DAV:   3    -0.382544171956E+02    0.69075E-04   -0.10931E-04 13456   0.168E-01    0.164E-02
DAV:   4    -0.382544164638E+02    0.73186E-06   -0.39775E-05 10832   0.100E-01    0.447E-03
DAV:   5    -0.382544171540E+02   -0.69019E-06   -0.85903E-06 11540   0.262E-02    0.345E-03
DAV:   6    -0.382544171380E+02    0.15970E-07   -0.60667E-07 11748   0.121E-02    0.167E-03
DAV:   7    -0.382544171467E+02   -0.87462E-08   -0.16216E-07 12928   0.582E-03    0.473E-04
DAV:   8    -0.382544171456E+02    0.11114E-08   -0.33185E-08  8752   0.160E-03
  17 F= -.38254417E+02 E0= -.38231640E+02  d E =-.627185E-01
 curvature:  -1.42 expect dE=-0.406E-01 dE for cont linesearch -0.426E-08
 trial: gam= 0.35973 g(F)=  0.181E-01 g(S)=  0.105E-01 ort =-0.536E-04 (trialstep = 0.196E+00)
 search vector abs. value=  0.152E+00
 bond charge predicted
       N       E                     dE             d eps       ncg     rms          rms(c)
DAV:   1    -0.382626014353E+02   -0.81843E-02   -0.95196E-01  9872   0.646E+00    0.655E-01
DAV:   2    -0.382598809366E+02    0.27205E-02   -0.61738E-02 11180   0.308E+00    0.315E-01
DAV:   3    -0.382587964400E+02    0.10845E-02   -0.48918E-03 13256   0.773E-01    0.157E-01
DAV:   4    -0.382583294764E+02    0.46696E-03   -0.75778E-04 12656   0.389E-01    0.323E-02
DAV:   5    -0.382583422674E+02   -0.12791E-04   -0.32499E-04 10696   0.150E-01    0.132E-02
DAV:   6    -0.382583420471E+02    0.22029E-06   -0.19828E-05 13520   0.356E-02    0.810E-03
DAV:   7    -0.382583413996E+02    0.64746E-06   -0.32355E-06 13572   0.296E-02    0.309E-03
DAV:   8    -0.382583413468E+02    0.52837E-07   -0.92153E-07 12084   0.134E-02    0.107E-03
DAV:   9    -0.382583413522E+02   -0.53847E-08   -0.21705E-07 12620   0.385E-03    0.608E-04
DAV:  10    -0.382583413260E+02    0.26203E-07   -0.20876E-08  7476   0.203E-03    0.197E-04
DAV:  11    -0.382583413137E+02    0.12259E-07   -0.74875E-09  5772   0.964E-04    0.110E-04
DAV:  12    -0.382583413136E+02    0.92768E-10   -0.19306E-09  5512   0.589E-04
  18 F= -.38258341E+02 E0= -.38235667E+02  d E =-.392417E-02
 trial-energy change:   -0.003924  1 .order   -0.003935   -0.005598   -0.002271
 step:   0.3339(harm=  0.3295)  dis= 0.00996  next Energy=   -38.259138 (dE=-0.472E-02)
 bond charge predicted
       N       E                     dE             d eps       ncg     rms          rms(c)
DAV:   1    -0.382612936510E+02   -0.29523E-02   -0.47323E-01  9880   0.456E+00    0.463E-01
DAV:   2    -0.382599176654E+02    0.13760E-02   -0.30726E-02 11176   0.217E+00    0.223E-01
DAV:   3    -0.382593789843E+02    0.53868E-03   -0.24401E-03 13516   0.543E-01    0.111E-01
DAV:   4    -0.382591464576E+02    0.23253E-03   -0.37035E-04 12828   0.274E-01    0.229E-02
DAV:   5    -0.382591527107E+02   -0.62531E-05   -0.16062E-04 10696   0.105E-01    0.929E-03
DAV:   6    -0.382591525672E+02    0.14347E-06   -0.98426E-06 13600   0.248E-02    0.568E-03
DAV:   7    -0.382591521980E+02    0.36926E-06   -0.15894E-06 13540   0.196E-02    0.216E-03
DAV:   8    -0.382591521600E+02    0.37953E-07   -0.45457E-07 12232   0.908E-03    0.743E-04
DAV:   9    -0.382591521617E+02   -0.17171E-08   -0.10445E-07 12464   0.269E-03    0.428E-04
DAV:  10    -0.382591521439E+02    0.17769E-07   -0.94577E-09  5984   0.156E-03    0.143E-04
DAV:  11    -0.382591521350E+02    0.89408E-08   -0.44761E-09  5640   0.799E-04
  19 F= -.38259152E+02 E0= -.38236562E+02  d E =-.473499E-02
 curvature:  -0.88 expect dE=-0.399E-01 dE for cont linesearch -0.196E-06
 trial: gam= 1.58638 g(F)=  0.404E-01 g(S)=  0.500E-02 ort = 0.185E-03 (trialstep = 0.793E-01)
 search vector abs. value=  0.430E+00
 bond charge predicted
       N       E                     dE             d eps       ncg     rms          rms(c)
DAV:   1    -0.382648402736E+02   -0.56881E-02   -0.45599E-01  9872   0.443E+00    0.460E-01
DAV:   2    -0.382631334457E+02    0.17068E-02   -0.29585E-02 11112   0.216E+00    0.210E-01
DAV:   3    -0.382627038622E+02    0.42958E-03   -0.24757E-03 13064   0.537E-01    0.106E-01
DAV:   4    -0.382624943476E+02    0.20951E-03   -0.40322E-04 12800   0.264E-01    0.272E-02
DAV:   5    -0.382624944317E+02   -0.84163E-07   -0.15047E-04 11008   0.102E-01    0.899E-03
DAV:   6    -0.382624946730E+02   -0.24127E-06   -0.12862E-05 11244   0.255E-02    0.541E-03
DAV:   7    -0.382624944614E+02    0.21160E-06   -0.12206E-06 15008   0.108E-02    0.209E-03
DAV:   8    -0.382624944369E+02    0.24520E-07   -0.38426E-07 11632   0.614E-03    0.719E-04
DAV:   9    -0.382624944212E+02    0.15655E-07   -0.56750E-08 10436   0.329E-03    0.385E-04
DAV:  10    -0.382624944046E+02    0.16608E-07   -0.11190E-08  5956   0.168E-03    0.153E-04
DAV:  11    -0.382624943982E+02    0.63810E-08   -0.56920E-09  5584   0.821E-04
  20 F= -.38262494E+02 E0= -.38239914E+02  d E =-.334226E-02
 ZBRENT: can't locate minimum, use default step
 trial-energy change:   -0.003342  1 .order   -0.003342   -0.003626   -0.003058
 step:   0.3171(harm=  0.5062)  dis= 0.01634  next Energy=   -38.270727 (dE=-0.116E-01)
 bond charge predicted
       N       E                     dE             d eps       ncg     rms          rms(c)
DAV:   1    -0.382905229415E+02   -0.28029E-01   -0.41056E+00  9872   0.132E+01    0.139E+00
DAV:   2    -0.382746229236E+02    0.15900E-01   -0.26680E-01 11140   0.647E+00    0.631E-01
DAV:   3    -0.382707119332E+02    0.39110E-02   -0.22471E-02 12920   0.164E+00    0.322E-01
DAV:   4    -0.382688241291E+02    0.18878E-02   -0.38446E-03 12752   0.810E-01    0.831E-02
DAV:   5    -0.382688218792E+02    0.22499E-05   -0.13665E-03 10928   0.312E-01    0.276E-02
DAV:   6    -0.382688233399E+02   -0.14607E-05   -0.11744E-04 11628   0.775E-02    0.165E-02
DAV:   7    -0.382688216698E+02    0.16701E-05   -0.10741E-05 15148   0.351E-02    0.647E-03
DAV:   8    -0.382688216648E+02    0.49145E-08   -0.33076E-06 11476   0.192E-02    0.211E-03
DAV:   9    -0.382688216514E+02    0.13440E-07   -0.55796E-07 11872   0.946E-03    0.116E-03
DAV:  10    -0.382688216025E+02    0.48946E-07   -0.11883E-07 12692   0.526E-03    0.486E-04
DAV:  11    -0.382688215892E+02    0.13231E-07   -0.34570E-08  9432   0.206E-03    0.255E-04
DAV:  12    -0.382688215814E+02    0.78030E-08   -0.77205E-09  5696   0.106E-03
  21 F= -.38268822E+02 E0= -.38246278E+02  d E =-.966945E-02
 curvature:  -1.91 expect dE=-0.388E-01 dE for cont linesearch -0.869E-03
 ZBRENT: increasing intervall
 opt :   0.7929  next Energy=   -38.263774 (dE=-0.462E-02)
 bond charge predicted
       N       E                     dE             d eps       ncg     rms          rms(c)
DAV:   1    -0.383518790909E+02   -0.83058E-01   -0.16484E+01  9880   0.260E+01    0.281E+00
DAV:   2    -0.382846458298E+02    0.67233E-01   -0.10789E+00 11160   0.130E+01    0.127E+00
DAV:   3    -0.382688570854E+02    0.15789E-01   -0.93005E-02 12836   0.338E+00    0.658E-01
DAV:   4    -0.382611911737E+02    0.76659E-02   -0.16506E-02 12824   0.168E+00    0.173E-01
DAV:   5    -0.382611756852E+02    0.15489E-04   -0.55551E-03 10876   0.650E-01    0.577E-02
DAV:   6    -0.382611810707E+02   -0.53855E-05   -0.50003E-04 12012   0.168E-01    0.339E-02
DAV:   7    -0.382611745541E+02    0.65166E-05   -0.43941E-05 15244   0.997E-02    0.139E-02
DAV:   8    -0.382611747917E+02   -0.23762E-06   -0.13418E-05 11452   0.486E-02    0.435E-03
DAV:   9    -0.382611749530E+02   -0.16128E-06   -0.29159E-06 11388   0.175E-02    0.239E-03
DAV:  10    -0.382611748528E+02    0.10020E-06   -0.44195E-07 11996   0.117E-02    0.921E-04
DAV:  11    -0.382611748281E+02    0.24745E-07   -0.12904E-07 11376   0.510E-03    0.371E-04
DAV:  12    -0.382611748180E+02    0.10051E-07   -0.35791E-08  9524   0.140E-03    0.196E-04
DAV:  13    -0.382611748103E+02    0.77498E-08   -0.40957E-09  5656   0.805E-04
  22 F= -.38261175E+02 E0= -.38238687E+02  d E =-.202268E-02
 curvature:  11.10 expect dE= 0.202E+01 dE for cont linesearch  0.634E-01
 ZBRENT: bracketing found
 ZBRENT: interpolating
 opt :   0.4218  next Energy=   -38.269553 (dE=-0.104E-01)
 bond charge predicted
       N       E                     dE             d eps       ncg     rms          rms(c)
DAV:   1    -0.383207906862E+02   -0.59616E-01   -0.10219E+01  9888   0.216E+01    0.218E+00
DAV:   2    -0.382844805453E+02    0.36310E-01   -0.67899E-01 11060   0.105E+01    0.101E+00
DAV:   3    -0.382747036394E+02    0.97769E-02   -0.57339E-02 13556   0.257E+00    0.512E-01
DAV:   4    -0.382696792819E+02    0.50244E-02   -0.92950E-03 12444   0.130E+00    0.134E-01
DAV:   5    -0.382696303356E+02    0.48946E-04   -0.35846E-03 10928   0.496E-01    0.430E-02
DAV:   6    -0.382696359881E+02   -0.56525E-05   -0.37391E-04 11196   0.146E-01    0.269E-02
DAV:   7    -0.382696313281E+02    0.46600E-05   -0.30220E-05 14788   0.106E-01    0.117E-02
DAV:   8    -0.382696315116E+02   -0.18355E-06   -0.10724E-05 11416   0.475E-02    0.337E-03
DAV:   9    -0.382696318874E+02   -0.37580E-06   -0.28960E-06 12372   0.129E-02    0.201E-03
DAV:  10    -0.382696319799E+02   -0.92457E-07   -0.19385E-07 12768   0.449E-03    0.763E-04
DAV:  11    -0.382696320394E+02   -0.59564E-07   -0.81024E-08 11020   0.236E-03    0.333E-04
DAV:  12    -0.382696320439E+02   -0.45065E-08   -0.10747E-08  5908   0.164E-03
  23 F= -.38269632E+02 E0= -.38247108E+02  d E =-.104799E-01
 curvature:  -0.13 expect dE=-0.407E-02 dE for cont linesearch -0.101E-05
 trial: gam= 0.71695 g(F)=  0.268E-01 g(S)=  0.492E-02 ort = 0.184E-02 (trialstep = 0.148E+00)
 search vector abs. value=  0.255E+00
 bond charge predicted
       N       E                     dE             d eps       ncg     rms          rms(c)
DAV:   1    -0.382794558480E+02   -0.98238E-02   -0.91941E-01  9940   0.682E+00    0.728E-01
DAV:   2    -0.382752244402E+02    0.42314E-02   -0.77163E-02 11244   0.352E+00    0.323E-01
DAV:   3    -0.382742083147E+02    0.10161E-02   -0.59857E-03 12996   0.834E-01    0.161E-01
DAV:   4    -0.382737020735E+02    0.50624E-03   -0.88930E-04 13164   0.419E-01    0.394E-02
DAV:   5    -0.382737009923E+02    0.10812E-05   -0.34102E-04 10872   0.154E-01    0.132E-02
DAV:   6    -0.382737009653E+02    0.27031E-07   -0.26934E-05 13432   0.450E-02    0.821E-03
DAV:   7    -0.382737003266E+02    0.63862E-06   -0.35369E-06 13156   0.309E-02    0.374E-03
DAV:   8    -0.382737002191E+02    0.10753E-06   -0.10486E-06 12220   0.161E-02    0.112E-03
DAV:   9    -0.382737002197E+02   -0.63528E-09   -0.34347E-07 12288   0.522E-03    0.732E-04
DAV:  10    -0.382737001943E+02    0.25463E-07   -0.40549E-08  9624   0.284E-03    0.280E-04
DAV:  11    -0.382737001823E+02    0.12014E-07   -0.10586E-08  5840   0.130E-03    0.143E-04
DAV:  12    -0.382737001766E+02    0.56880E-08   -0.35060E-09  5536   0.679E-04
  24 F= -.38273700E+02 E0= -.38251387E+02  d E =-.406813E-02
 trial-energy change:   -0.004068  1 .order   -0.004081   -0.004889   -0.003274
 step:   0.5079(harm=  0.4474)  dis= 0.02001  next Energy=   -38.277499 (dE=-0.787E-02)
 bond charge predicted
       N       E                     dE             d eps       ncg     rms          rms(c)
DAV:   1    -0.383127493229E+02   -0.39049E-01   -0.54465E+00  9952   0.165E+01    0.178E+00
DAV:   2    -0.382864782232E+02    0.26271E-01   -0.45832E-01 11292   0.858E+00    0.788E-01
DAV:   3    -0.382803595847E+02    0.61186E-02   -0.36221E-02 12916   0.209E+00    0.393E-01
DAV:   4    -0.382773534387E+02    0.30061E-02   -0.55357E-03 13036   0.103E+00    0.944E-02
DAV:   5    -0.382773523359E+02    0.11028E-05   -0.20323E-03 10824   0.381E-01    0.327E-02
DAV:   6    -0.382773517178E+02    0.61804E-06   -0.15231E-04 13584   0.108E-01    0.201E-02
DAV:   7    -0.382773485827E+02    0.31351E-05   -0.20242E-05 13196   0.764E-02    0.871E-03
DAV:   8    -0.382773483984E+02    0.18432E-06   -0.59621E-06 12216   0.397E-02    0.268E-03
DAV:   9    -0.382773484793E+02   -0.80947E-07   -0.19286E-06 12264   0.120E-02    0.175E-03
DAV:  10    -0.382773484165E+02    0.62880E-07   -0.21797E-07 12700   0.667E-03    0.636E-04
DAV:  11    -0.382773483922E+02    0.24228E-07   -0.58204E-08 10884   0.290E-03    0.288E-04
DAV:  12    -0.382773483815E+02    0.10776E-07   -0.11836E-08  6056   0.101E-03    0.114E-04
DAV:  13    -0.382773483782E+02    0.33010E-08   -0.38870E-09  5600   0.726E-04
  25 F= -.38277348E+02 E0= -.38255577E+02  d E =-.771633E-02
 curvature:  -1.66 expect dE=-0.810E-01 dE for cont linesearch -0.480E-05
 trial: gam= 1.63015 g(F)=  0.391E-01 g(S)=  0.983E-02 ort =-0.860E-03 (trialstep = 0.775E-01)
 search vector abs. value=  0.724E+00
 bond charge predicted
       N       E                     dE             d eps       ncg     rms          rms(c)
DAV:   1    -0.382825459566E+02   -0.51976E-02   -0.75332E-01  9872   0.534E+00    0.485E-01
DAV:   2    -0.382811287454E+02    0.14172E-02   -0.36861E-02 11264   0.226E+00    0.239E-01
DAV:   3    -0.382806130617E+02    0.51568E-03   -0.33385E-03 11828   0.619E-01    0.123E-01
DAV:   4    -0.382803515346E+02    0.26153E-03   -0.65701E-04 12440   0.314E-01    0.313E-02
DAV:   5    -0.382803560103E+02   -0.44757E-05   -0.21460E-04 10848   0.129E-01    0.117E-02
DAV:   6    -0.382803562345E+02   -0.22420E-06   -0.18628E-05 12392   0.370E-02    0.713E-03
DAV:   7    -0.382803559479E+02    0.28652E-06   -0.25961E-06 12536   0.240E-02    0.276E-03
DAV:   8    -0.382803559353E+02    0.12683E-07   -0.64792E-07 12064   0.145E-02    0.977E-04
DAV:   9    -0.382803559323E+02    0.29954E-08   -0.20294E-07 12420   0.386E-03    0.583E-04
DAV:  10    -0.382803559090E+02    0.23240E-07   -0.23865E-08  7976   0.198E-03    0.200E-04
DAV:  11    -0.382803559028E+02    0.62664E-08   -0.68940E-09  5600   0.123E-03
  26 F= -.38280356E+02 E0= -.38258663E+02  d E =-.300752E-02
 trial-energy change:   -0.003008  1 .order   -0.003011   -0.003678   -0.002345
 step:   0.2137(harm=  0.2137)  dis= 0.01389  next Energy=   -38.282421 (dE=-0.507E-02)
 bond charge predicted
       N       E                     dE             d eps       ncg     rms          rms(c)
DAV:   1    -0.382891399820E+02   -0.87841E-02   -0.23331E+00  9884   0.937E+00    0.855E-01
DAV:   2    -0.382846458492E+02    0.44941E-02   -0.11421E-01 11336   0.397E+00    0.421E-01
DAV:   3    -0.382830399038E+02    0.16059E-02   -0.10423E-02 11756   0.110E+00    0.219E-01
DAV:   4    -0.382822239778E+02    0.81593E-03   -0.20880E-03 12464   0.560E-01    0.559E-02
DAV:   5    -0.382822377114E+02   -0.13734E-04   -0.66688E-04 10784   0.230E-01    0.210E-02
DAV:   6    -0.382822381999E+02   -0.48848E-06   -0.58160E-05 12732   0.620E-02    0.126E-02
DAV:   7    -0.382822373359E+02    0.86394E-06   -0.77246E-06 12320   0.370E-02    0.472E-03
DAV:   8    -0.382822373514E+02   -0.15496E-07   -0.18061E-06 12104   0.241E-02    0.172E-03
DAV:   9    -0.382822373561E+02   -0.47039E-08   -0.50465E-07 12240   0.757E-03    0.984E-04
DAV:  10    -0.382822373193E+02    0.36888E-07   -0.84655E-08  9904   0.346E-03    0.336E-04
DAV:  11    -0.382822373099E+02    0.93064E-08   -0.18873E-08  6448   0.200E-03
  27 F= -.38282237E+02 E0= -.38260648E+02  d E =-.488893E-02
 curvature:  -1.63 expect dE=-0.405E-01 dE for cont linesearch -0.205E-04
 trial: gam= 0.45592 g(F)=  0.170E-01 g(S)=  0.789E-02 ort =-0.302E-02 (trialstep = 0.105E+00)
 search vector abs. value=  0.173E+00
 bond charge predicted
       N       E                     dE             d eps       ncg     rms          rms(c)
DAV:   1    -0.382847305400E+02   -0.24932E-02   -0.32750E-01  9880   0.318E+00    0.205E-01
DAV:   2    -0.382847970673E+02   -0.66527E-04   -0.73564E-03 11996   0.820E-01    0.128E-01
DAV:   3    -0.382845683814E+02    0.22869E-03   -0.57318E-04 12116   0.290E-01    0.514E-02
DAV:   4    -0.382845343341E+02    0.34047E-04   -0.17203E-04 11356   0.153E-01    0.102E-02
DAV:   5    -0.382845368895E+02   -0.25554E-05   -0.43242E-05 10972   0.732E-02    0.717E-03
DAV:   6    -0.382845366183E+02    0.27120E-06   -0.47054E-06 11996   0.352E-02    0.386E-03
DAV:   7    -0.382845365370E+02    0.81238E-07   -0.14053E-06 14460   0.173E-02    0.121E-03
DAV:   8    -0.382845365437E+02   -0.66366E-08   -0.31870E-07 11548   0.436E-03    0.725E-04
DAV:   9    -0.382845365362E+02    0.74965E-08   -0.31601E-08  9552   0.165E-03
  28 F= -.38284537E+02 E0= -.38263097E+02  d E =-.229923E-02
 ZBRENT: can't locate minimum, use default step
 trial-energy change:   -0.002299  1 .order   -0.002303   -0.002457   -0.002148
 step:   0.4188(harm=  0.8308)  dis= 0.01242  next Energy=   -38.291987 (dE=-0.975E-02)
 bond charge predicted
       N       E                     dE             d eps       ncg     rms          rms(c)
DAV:   1    -0.382914350860E+02   -0.68985E-02   -0.29444E+00  9880   0.950E+00    0.615E-01
DAV:   2    -0.382920303769E+02   -0.59529E-03   -0.65956E-02 12200   0.240E+00    0.382E-01
DAV:   3    -0.382899323778E+02    0.20980E-02   -0.48360E-03 12148   0.842E-01    0.151E-01
DAV:   4    -0.382896445764E+02    0.28780E-03   -0.15202E-03 11468   0.450E-01    0.307E-02
DAV:   5    -0.382896653933E+02   -0.20817E-04   -0.36223E-04 10916   0.214E-01    0.214E-02
DAV:   6    -0.382896629793E+02    0.24140E-05   -0.40533E-05 11976   0.104E-01    0.115E-02
DAV:   7    -0.382896627336E+02    0.24569E-06   -0.12163E-05 14276   0.513E-02    0.363E-03
DAV:   8    -0.382896628947E+02   -0.16107E-06   -0.27831E-06 11564   0.125E-02    0.217E-03
DAV:   9    -0.382896628833E+02    0.11417E-07   -0.27358E-07 11064   0.484E-03    0.977E-04
DAV:  10    -0.382896628540E+02    0.29212E-07   -0.42884E-08 10868   0.182E-03    0.193E-04
DAV:  11    -0.382896628530E+02    0.10291E-08   -0.65385E-09  5868   0.101E-03
  29 F= -.38289663E+02 E0= -.38268644E+02  d E =-.742554E-02
 curvature:  -2.07 expect dE=-0.367E-01 dE for cont linesearch -0.182E-02
 ZBRENT: increasing intervall
 opt :   1.0470  next Energy=   -38.292261 (dE=-0.100E-01)
 bond charge predicted
       N       E                     dE             d eps       ncg     rms          rms(c)
DAV:   1    -0.382997453699E+02   -0.10083E-01   -0.11766E+01  9884   0.190E+01    0.123E+00
DAV:   2    -0.383022533696E+02   -0.25080E-02   -0.26538E-01 12308   0.460E+00    0.763E-01
DAV:   3    -0.382938075121E+02    0.84459E-02   -0.18430E-02 11996   0.158E+00    0.299E-01
DAV:   4    -0.382926704385E+02    0.11371E-02   -0.57990E-03 11412   0.861E-01    0.632E-02
DAV:   5    -0.382927486871E+02   -0.78249E-04   -0.13989E-03 10912   0.424E-01    0.427E-02
DAV:   6    -0.382927388404E+02    0.98467E-05   -0.16073E-04 12008   0.204E-01    0.229E-02
DAV:   7    -0.382927382602E+02    0.58019E-06   -0.46051E-05 14228   0.105E-01    0.750E-03
DAV:   8    -0.382927390761E+02   -0.81593E-06   -0.10683E-05 11696   0.252E-02    0.443E-03
DAV:   9    -0.382927390682E+02    0.79331E-08   -0.10683E-06 11308   0.106E-02    0.186E-03
DAV:  10    -0.382927390423E+02    0.25856E-07   -0.18344E-07 11544   0.364E-03    0.390E-04
DAV:  11    -0.382927390389E+02    0.34183E-08   -0.20595E-08  7324   0.152E-03
  30 F= -.38292739E+02 E0= -.38272393E+02  d E =-.105017E-01
 curvature:  -2.95 expect dE=-0.102E+00 dE for cont linesearch -0.599E-04
 trial: gam= 1.10631 g(F)=  0.174E-01 g(S)=  0.171E-01 ort =-0.187E-02 (trialstep = 0.209E+00)
 search vector abs. value=  0.242E+00
 bond charge predicted
       N       E                     dE             d eps       ncg     rms          rms(c)
DAV:   1    -0.382993568100E+02   -0.66178E-02   -0.18801E+00 10000   0.856E+00    0.684E-01
DAV:   2    -0.382986818471E+02    0.67496E-03   -0.91568E-02 11232   0.339E+00    0.331E-01
DAV:   3    -0.382977084891E+02    0.97336E-03   -0.73528E-03 11996   0.912E-01    0.179E-01
DAV:   4    -0.382971625186E+02    0.54597E-03   -0.12223E-03 11984   0.497E-01    0.446E-02
DAV:   5    -0.382971617714E+02    0.74726E-06   -0.41365E-04 10664   0.219E-01    0.161E-02
DAV:   6    -0.382971647045E+02   -0.29331E-05   -0.67519E-05 11660   0.104E-01    0.112E-02
DAV:   7    -0.382971642891E+02    0.41542E-06   -0.92528E-06 11788   0.549E-02    0.500E-03
DAV:   8    -0.382971644412E+02   -0.15212E-06   -0.27927E-06 13860   0.249E-02    0.201E-03
DAV:   9    -0.382971645260E+02   -0.84786E-07   -0.69667E-07 11368   0.672E-03    0.102E-03
DAV:  10    -0.382971645472E+02   -0.21222E-07   -0.84424E-08 12940   0.267E-03    0.462E-04
DAV:  11    -0.382971645592E+02   -0.12030E-07   -0.12339E-08  5812   0.149E-03    0.184E-04
DAV:  12    -0.382971645610E+02   -0.18026E-08   -0.10317E-08  6964   0.696E-04
  31 F= -.38297165E+02 E0= -.38276792E+02  d E =-.442552E-02
 trial-energy change:   -0.004426  1 .order   -0.004396   -0.006801   -0.001991
 step:   0.2919(harm=  0.2961)  dis= 0.01130  next Energy=   -38.297558 (dE=-0.482E-02)
 bond charge predicted
       N       E                     dE             d eps       ncg     rms          rms(c)
DAV:   1    -0.382979056992E+02   -0.74114E-03   -0.29146E-01 10000   0.335E+00    0.269E-01
DAV:   2    -0.382977957231E+02    0.10998E-03   -0.14196E-02 11232   0.132E+00    0.130E-01
DAV:   3    -0.382976426220E+02    0.15310E-03   -0.11531E-03 11880   0.362E-01    0.708E-02
DAV:   4    -0.382975568102E+02    0.85812E-04   -0.19757E-04 12076   0.197E-01    0.182E-02
DAV:   5    -0.382975559072E+02    0.90295E-06   -0.63924E-05 10656   0.907E-02    0.633E-03
DAV:   6    -0.382975563909E+02   -0.48364E-06   -0.11119E-05 11584   0.407E-02    0.438E-03
DAV:   7    -0.382975563735E+02    0.17379E-07   -0.15075E-06 11804   0.215E-02    0.198E-03
DAV:   8    -0.382975564219E+02   -0.48420E-07   -0.43676E-07 13604   0.104E-02    0.814E-04
DAV:   9    -0.382975564404E+02   -0.18546E-07   -0.11198E-07 10892   0.276E-03    0.396E-04
DAV:  10    -0.382975564476E+02   -0.71236E-08   -0.95785E-09  5848   0.114E-03
  32 F= -.38297556E+02 E0= -.38277161E+02  d E =-.481741E-02
 curvature:  -1.10 expect dE=-0.588E-01 dE for cont linesearch -0.119E-07
 trial: gam= 1.39497 g(F)=  0.473E-01 g(S)=  0.613E-02 ort = 0.512E-04 (trialstep = 0.104E+00)
 search vector abs. value=  0.524E+00
 bond charge predicted
       N       E                     dE             d eps       ncg     rms          rms(c)
DAV:   1    -0.383058743967E+02   -0.83180E-02   -0.10138E+00 10092   0.650E+00    0.593E-01
DAV:   2    -0.383036068468E+02    0.22675E-02   -0.55213E-02 11124   0.286E+00    0.268E-01
DAV:   3    -0.383029198482E+02    0.68700E-03   -0.46263E-03 13204   0.744E-01    0.137E-01
DAV:   4    -0.383025646048E+02    0.35524E-03   -0.74571E-04 12952   0.370E-01    0.355E-02
DAV:   5    -0.383025601389E+02    0.44659E-05   -0.26347E-04 10580   0.134E-01    0.134E-02
DAV:   6    -0.383025593541E+02    0.78485E-06   -0.29174E-05 13820   0.441E-02    0.769E-03
DAV:   7    -0.383025589924E+02    0.36170E-06   -0.42392E-06 12752   0.321E-02    0.328E-03
DAV:   8    -0.383025590396E+02   -0.47184E-07   -0.10585E-06 14732   0.156E-02    0.157E-03
DAV:   9    -0.383025590732E+02   -0.33643E-07   -0.35804E-07 13164   0.538E-03    0.790E-04
DAV:  10    -0.383025590969E+02   -0.23670E-07   -0.46303E-08 10416   0.276E-03    0.408E-04
DAV:  11    -0.383025591084E+02   -0.11474E-07   -0.25763E-08  9228   0.168E-03    0.169E-04
DAV:  12    -0.383025591112E+02   -0.28622E-08   -0.53597E-09  5504   0.691E-04
  33 F= -.38302559E+02 E0= -.38282320E+02  d E =-.500266E-02
 ZBRENT: can't locate minimum, use default step
 trial-energy change:   -0.005003  1 .order   -0.005006   -0.005577   -0.004435
 step:   0.4168(harm=  0.5085)  dis= 0.02432  next Energy=   -38.311166 (dE=-0.136E-01)
 bond charge predicted
       N       E                     dE             d eps       ncg     rms          rms(c)
DAV:   1    -0.383387363419E+02   -0.36177E-01   -0.91404E+00 10092   0.198E+01    0.177E+00
DAV:   2    -0.383202579261E+02    0.18478E-01   -0.50341E-01 11116   0.863E+00    0.802E-01
DAV:   3    -0.383143105972E+02    0.59473E-02   -0.41398E-02 13396   0.217E+00    0.410E-01
DAV:   4    -0.383110826846E+02    0.32279E-02   -0.64296E-03 12832   0.110E+00    0.105E-01
DAV:   5    -0.383110455017E+02    0.37183E-04   -0.23653E-03 10572   0.395E-01    0.390E-02
DAV:   6    -0.383110395195E+02    0.59823E-05   -0.27252E-04 13648   0.160E-01    0.235E-02
DAV:   7    -0.383110358212E+02    0.36983E-05   -0.40417E-05 12280   0.104E-01    0.103E-02
DAV:   8    -0.383110362268E+02   -0.40560E-06   -0.10731E-05 15576   0.476E-02    0.461E-03
DAV:   9    -0.383110364110E+02   -0.18414E-06   -0.30026E-06 13284   0.158E-02    0.225E-03
DAV:  10    -0.383110365226E+02   -0.11162E-06   -0.38689E-07 10876   0.731E-03    0.114E-03
DAV:  11    -0.383110365541E+02   -0.31501E-07   -0.17547E-07 13556   0.470E-03    0.409E-04
DAV:  12    -0.383110365640E+02   -0.99599E-08   -0.37386E-08 10664   0.153E-03
  34 F= -.38311037E+02 E0= -.38291105E+02  d E =-.134801E-01
 curvature:  -2.36 expect dE=-0.249E-01 dE for cont linesearch -0.677E-03
 ZBRENT: extrapolating
 opt :   0.5433  next Energy=   -38.311812 (dE=-0.143E-01)
 bond charge predicted
       N       E                     dE             d eps       ncg     rms          rms(c)
DAV:   1    -0.383165028953E+02   -0.54663E-02   -0.14844E+00 10092   0.788E+00    0.712E-01
DAV:   2    -0.383133597719E+02    0.31431E-02   -0.80568E-02 11152   0.341E+00    0.321E-01
DAV:   3    -0.383123847673E+02    0.97500E-03   -0.66246E-03 12972   0.879E-01    0.165E-01
DAV:   4    -0.383118765391E+02    0.50823E-03   -0.10598E-03 12892   0.443E-01    0.423E-02
DAV:   5    -0.383118692782E+02    0.72610E-05   -0.37924E-04 10576   0.163E-01    0.158E-02
DAV:   6    -0.383118685448E+02    0.73336E-06   -0.47079E-05 13712   0.699E-02    0.982E-03
DAV:   7    -0.383118679185E+02    0.62625E-06   -0.64911E-06 12392   0.458E-02    0.443E-03
DAV:   8    -0.383118680121E+02   -0.93526E-07   -0.19300E-06 15932   0.188E-02    0.192E-03
DAV:   9    -0.383118680481E+02   -0.36034E-07   -0.51095E-07 13320   0.649E-03    0.895E-04
DAV:  10    -0.383118680862E+02   -0.38096E-07   -0.70256E-08 10668   0.271E-03    0.466E-04
DAV:  11    -0.383118680970E+02   -0.10778E-07   -0.25777E-08  9116   0.157E-03    0.136E-04
DAV:  12    -0.383118681009E+02   -0.39649E-08   -0.59438E-09  5528   0.708E-04
  35 F= -.38311868E+02 E0= -.38292005E+02  d E =-.143117E-01
 curvature:  -2.70 expect dE=-0.311E-01 dE for cont linesearch -0.450E-05
 trial: gam= 0.15737 g(F)=  0.948E-02 g(S)=  0.202E-02 ort = 0.934E-03 (trialstep = 0.192E+00)
 search vector abs. value=  0.248E-01
 bond charge predicted
       N       E                     dE             d eps       ncg     rms          rms(c)
DAV:   1    -0.383135321323E+02   -0.16640E-02   -0.17939E-01  9920   0.249E+00    0.138E-01
DAV:   2    -0.383139199551E+02   -0.38782E-03   -0.71517E-03 11252   0.752E-01    0.762E-02
DAV:   3    -0.383138935063E+02    0.26449E-04   -0.45890E-04 12288   0.223E-01    0.438E-02
DAV:   4    -0.383138680193E+02    0.25487E-04   -0.72841E-05 12648   0.129E-01    0.131E-02
DAV:   5    -0.383138678192E+02    0.20008E-06   -0.24936E-05 11292   0.599E-02    0.487E-03
DAV:   6    -0.383138678560E+02   -0.36791E-07   -0.45467E-06 12016   0.250E-02    0.315E-03
DAV:   7    -0.383138678391E+02    0.16976E-07   -0.59214E-07 11772   0.132E-02    0.137E-03
DAV:   8    -0.383138678710E+02   -0.31914E-07   -0.21490E-07 13076   0.593E-03    0.545E-04
DAV:   9    -0.383138678728E+02   -0.18517E-08   -0.33284E-08  8408   0.224E-03
  36 F= -.38313868E+02 E0= -.38293947E+02  d E =-.199977E-02
 ZBRENT: can't locate minimum, use default step
 trial-energy change:   -0.002000  1 .order   -0.002001   -0.002238   -0.001765
 step:   0.7681(harm=  0.9085)  dis= 0.00950  next Energy=   -38.317161 (dE=-0.529E-02)
 bond charge predicted
       N       E                     dE             d eps       ncg     rms          rms(c)
DAV:   1    -0.383138658009E+02    0.20701E-05   -0.16161E+00  9920   0.751E+00    0.411E-01
DAV:   2    -0.383174453560E+02   -0.35796E-02   -0.65011E-02 11268   0.229E+00    0.230E-01
DAV:   3    -0.383172168628E+02    0.22849E-03   -0.41743E-03 12300   0.686E-01    0.133E-01
DAV:   4    -0.383169896611E+02    0.22720E-03   -0.67022E-04 12460   0.386E-01    0.409E-02
DAV:   5    -0.383169871901E+02    0.24710E-05   -0.22518E-04 11456   0.184E-01    0.147E-02
DAV:   6    -0.383169879776E+02   -0.78758E-06   -0.42716E-05 11384   0.779E-02    0.949E-03
DAV:   7    -0.383169875434E+02    0.43423E-06   -0.57086E-06 12068   0.400E-02    0.389E-03
DAV:   8    -0.383169877068E+02   -0.16338E-06   -0.20406E-06 12940   0.200E-02    0.169E-03
DAV:   9    -0.383169877378E+02   -0.31017E-07   -0.32817E-07 10924   0.637E-03    0.734E-04
DAV:  10    -0.383169877564E+02   -0.18574E-07   -0.73845E-08 11884   0.321E-03    0.519E-04
DAV:  11    -0.383169877665E+02   -0.10078E-07   -0.12221E-08  5924   0.156E-03    0.197E-04
DAV:  12    -0.383169877703E+02   -0.38244E-08   -0.61153E-09  5680   0.583E-04
  37 F= -.38316988E+02 E0= -.38296875E+02  d E =-.511967E-02
 curvature:  -0.93 expect dE=-0.389E-01 dE for cont linesearch -0.924E-04
 trial: gam= 3.47929 g(F)=  0.355E-01 g(S)=  0.638E-02 ort = 0.157E-02 (trialstep = 0.216E-01)
 search vector abs. value=  0.353E+00
 bond charge predicted
       N       E                     dE             d eps       ncg     rms          rms(c)
DAV:   1    -0.383179070360E+02   -0.91927E-03   -0.32659E-02  9880   0.101E+00    0.454E-02
DAV:   2    -0.383179856457E+02   -0.78610E-04   -0.10355E-03 12176   0.219E-01    0.289E-02
DAV:   3    -0.383179778897E+02    0.77560E-05   -0.35870E-05 12960   0.445E-02    0.172E-02
DAV:   4    -0.383179741545E+02    0.37351E-05   -0.13108E-05 11564   0.371E-02    0.404E-03
DAV:   5    -0.383179742326E+02   -0.78101E-07   -0.37855E-06 11092   0.252E-02    0.213E-03
DAV:   6    -0.383179742334E+02   -0.80081E-09   -0.54187E-07 11556   0.944E-03    0.123E-03
DAV:   7    -0.383179742196E+02    0.13866E-07   -0.10592E-07 11752   0.613E-03    0.466E-04
DAV:   8    -0.383179742191E+02    0.48976E-09   -0.38195E-08  9276   0.204E-03
  38 F= -.38317974E+02 E0= -.38297881E+02  d E =-.986449E-03
 ZBRENT: can't locate minimum, use default step
 trial-energy change:   -0.000986  1 .order   -0.000985   -0.001022   -0.000947
 step:   0.0863(harm=  0.2969)  dis= 0.00409  next Energy=   -38.321308 (dE=-0.432E-02)
 bond charge predicted
       N       E                     dE             d eps       ncg     rms          rms(c)
DAV:   1    -0.383198850499E+02   -0.19108E-02   -0.29391E-01  9880   0.302E+00    0.136E-01
DAV:   2    -0.383205903954E+02   -0.70535E-03   -0.92993E-03 12172   0.655E-01    0.865E-02
DAV:   3    -0.383205199099E+02    0.70486E-04   -0.31906E-04 13020   0.132E-01    0.513E-02
DAV:   4    -0.383204854632E+02    0.34447E-04   -0.11785E-04 11596   0.112E-01    0.119E-02
DAV:   5    -0.383204866130E+02   -0.11498E-05   -0.33840E-05 11100   0.753E-02    0.637E-03
DAV:   6    -0.383204866385E+02   -0.25459E-07   -0.47886E-06 11592   0.283E-02    0.367E-03
DAV:   7    -0.383204865400E+02    0.98425E-07   -0.95535E-07 11900   0.181E-02    0.136E-03
DAV:   8    -0.383204865604E+02   -0.20420E-07   -0.35707E-07 11912   0.598E-03    0.513E-04
DAV:   9    -0.383204865589E+02    0.15161E-08   -0.36879E-08  8148   0.179E-03
  39 F= -.38320487E+02 E0= -.38300448E+02  d E =-.349879E-02
 curvature:  -0.46 expect dE=-0.816E-02 dE for cont linesearch -0.148E-02
 ZBRENT: increasing intervall
 opt :   0.2158  next Energy=   -38.323529 (dE=-0.654E-02)
 bond charge predicted
       N       E                     dE             d eps       ncg     rms          rms(c)
DAV:   1    -0.383211566186E+02   -0.67006E-03   -0.11752E+00  9880   0.603E+00    0.271E-01
DAV:   2    -0.383239729842E+02   -0.28164E-02   -0.37107E-02 12132   0.131E+00    0.173E-01
DAV:   3    -0.383236885815E+02    0.28440E-03   -0.12622E-03 13092   0.264E-01    0.102E-01
DAV:   4    -0.383235508121E+02    0.13777E-03   -0.46910E-04 11620   0.221E-01    0.232E-02
DAV:   5    -0.383235560718E+02   -0.52596E-05   -0.13295E-04 11008   0.147E-01    0.127E-02
DAV:   6    -0.383235561203E+02   -0.48563E-07   -0.18389E-05 11712   0.569E-02    0.728E-03
DAV:   7    -0.383235557453E+02    0.37503E-06   -0.37828E-06 12044   0.353E-02    0.261E-03
DAV:   8    -0.383235558546E+02   -0.10931E-06   -0.14084E-06 11900   0.114E-02    0.102E-03
DAV:   9    -0.383235558525E+02    0.20623E-08   -0.13600E-07 11012   0.350E-03    0.561E-04
DAV:  10    -0.383235558535E+02   -0.94042E-09   -0.21032E-08  7412   0.224E-03
  40 F= -.38323556E+02 E0= -.38303621E+02  d E =-.656808E-02
 curvature:  -0.95 expect dE=-0.530E-02 dE for cont linesearch -0.506E-03
 ZBRENT: increasing intervall
 opt :   0.4748  next Energy=   -38.321949 (dE=-0.496E-02)
 bond charge predicted
       N       E                     dE             d eps       ncg     rms          rms(c)
DAV:   1    -0.383125406682E+02    0.11015E-01   -0.46970E+00  9884   0.121E+01    0.540E-01
DAV:   2    -0.383238403344E+02   -0.11300E-01   -0.14843E-01 12108   0.260E+00    0.345E-01
DAV:   3    -0.383226779295E+02    0.11624E-02   -0.49065E-03 13188   0.536E-01    0.201E-01
DAV:   4    -0.383221292360E+02    0.54869E-03   -0.18796E-03 11456   0.447E-01    0.454E-02
DAV:   5    -0.383221525290E+02   -0.23293E-04   -0.52027E-04 10956   0.286E-01    0.252E-02
DAV:   6    -0.383221522518E+02    0.27717E-06   -0.69090E-05 11888   0.112E-01    0.144E-02
DAV:   7    -0.383221507224E+02    0.15294E-05   -0.14670E-05 12132   0.679E-02    0.492E-03
DAV:   8    -0.383221511906E+02   -0.46812E-06   -0.54844E-06 11968   0.221E-02    0.205E-03
DAV:   9    -0.383221511974E+02   -0.68694E-08   -0.51477E-07 11068   0.667E-03    0.109E-03
DAV:  10    -0.383221512004E+02   -0.30072E-08   -0.92963E-08 12240   0.378E-03
  41 F= -.38322151E+02 E0= -.38302412E+02  d E =-.516343E-02
 curvature:   3.00 expect dE= 0.196E+00 dE for cont linesearch  0.496E-02
 ZBRENT: bracketing found
 ZBRENT: interpolating
 opt :   0.3097  next Energy=   -38.324201 (dE=-0.721E-02)
 bond charge predicted
       N       E                     dE             d eps       ncg     rms          rms(c)
DAV:   1    -0.383202608914E+02    0.18903E-02   -0.19029E+00  9884   0.769E+00    0.351E-01
DAV:   2    -0.383248425296E+02   -0.45816E-02   -0.60701E-02 12108   0.169E+00    0.221E-01
DAV:   3    -0.383243993160E+02    0.44321E-03   -0.20985E-03 12952   0.352E-01    0.132E-01
DAV:   4    -0.383241735083E+02    0.22581E-03   -0.72579E-04 11624   0.247E-01    0.295E-02
DAV:   5    -0.383241821876E+02   -0.86793E-05   -0.21200E-04 11008   0.172E-01    0.161E-02
DAV:   6    -0.383241822898E+02   -0.10221E-06   -0.27188E-05 11540   0.718E-02    0.910E-03
DAV:   7    -0.383241818252E+02    0.46467E-06   -0.54952E-06 12120   0.459E-02    0.364E-03
DAV:   8    -0.383241820089E+02   -0.18368E-06   -0.19734E-06 11876   0.154E-02    0.120E-03
DAV:   9    -0.383241820282E+02   -0.19319E-07   -0.29027E-07 12336   0.515E-03    0.713E-04
DAV:  10    -0.383241820226E+02    0.55952E-08   -0.37737E-08  9800   0.266E-03
  42 F= -.38324182E+02 E0= -.38304320E+02  d E =-.719425E-02
 curvature:  -0.39 expect dE=-0.568E-02 dE for cont linesearch -0.143E-06
 trial: gam= 0.64694 g(F)=  0.123E-01 g(S)=  0.224E-02 ort =-0.359E-03 (trialstep = 0.792E-01)
 search vector abs. value=  0.162E+00
 bond charge predicted
       N       E                     dE             d eps       ncg     rms          rms(c)
DAV:   1    -0.383247933302E+02   -0.61130E-03   -0.20125E-01  9876   0.250E+00    0.118E-01
DAV:   2    -0.383252328595E+02   -0.43953E-03   -0.63026E-03 12148   0.592E-01    0.692E-02
DAV:   3    -0.383251964640E+02    0.36396E-04   -0.26960E-04 12124   0.153E-01    0.392E-02
DAV:   4    -0.383251761041E+02    0.20360E-04   -0.59669E-05 13048   0.107E-01    0.892E-03
DAV:   5    -0.383251773762E+02   -0.12721E-05   -0.21215E-05 10908   0.594E-02    0.465E-03
DAV:   6    -0.383251774331E+02   -0.56859E-07   -0.27529E-06 12476   0.176E-02    0.268E-03
DAV:   7    -0.383251774109E+02    0.22149E-07   -0.36359E-07 12524   0.114E-02    0.926E-04
DAV:   8    -0.383251774171E+02   -0.62328E-08   -0.12140E-07 13152   0.392E-03    0.375E-04
DAV:   9    -0.383251774180E+02   -0.88357E-09   -0.14022E-08  5968   0.112E-03
  43 F= -.38325177E+02 E0= -.38305274E+02  d E =-.995395E-03
 trial-energy change:   -0.000995  1 .order   -0.000992   -0.001136   -0.000849
 step:   0.2711(harm=  0.3135)  dis= 0.00896  next Energy=   -38.326249 (dE=-0.207E-02)
 bond charge predicted
       N       E                     dE             d eps       ncg     rms          rms(c)
DAV:   1    -0.383241130646E+02    0.10644E-02   -0.11816E+00  9872   0.605E+00    0.285E-01
DAV:   2    -0.383266968070E+02   -0.25837E-02   -0.37020E-02 12116   0.142E+00    0.168E-01
DAV:   3    -0.383264786375E+02    0.21817E-03   -0.15533E-03 12180   0.364E-01    0.956E-02
DAV:   4    -0.383263580655E+02    0.12057E-03   -0.34235E-04 12852   0.259E-01    0.220E-02
DAV:   5    -0.383263650135E+02   -0.69479E-05   -0.12577E-04 10888   0.149E-01    0.113E-02
DAV:   6    -0.383263653067E+02   -0.29323E-06   -0.16977E-05 12436   0.410E-02    0.661E-03
DAV:   7    -0.383263651708E+02    0.13591E-06   -0.20473E-06 12520   0.266E-02    0.231E-03
DAV:   8    -0.383263652261E+02   -0.55368E-07   -0.69593E-07 13488   0.918E-03    0.951E-04
DAV:   9    -0.383263652284E+02   -0.22301E-08   -0.84982E-08 10644   0.259E-03
  44 F= -.38326365E+02 E0= -.38306351E+02  d E =-.218321E-02
 curvature:  -1.71 expect dE=-0.122E-01 dE for cont linesearch -0.242E-04
 ZBRENT: extrapolating
 opt :   0.3026  next Energy=   -38.326389 (dE=-0.221E-02)
 bond charge predicted
       N       E                     dE             d eps       ncg     rms          rms(c)
DAV:   1    -0.383263265495E+02    0.38677E-04   -0.31898E-02  9876   0.996E-01    0.467E-02
DAV:   2    -0.383263964726E+02   -0.69923E-04   -0.10032E-03 12220   0.237E-01    0.275E-02
DAV:   3    -0.383263907964E+02    0.56762E-05   -0.43217E-05 12144   0.613E-02    0.156E-02
DAV:   4    -0.383263875372E+02    0.32593E-05   -0.97099E-06 13044   0.427E-02    0.358E-03
DAV:   5    -0.383263877877E+02   -0.25049E-06   -0.34173E-06 10780   0.236E-02    0.188E-03
DAV:   6    -0.383263878096E+02   -0.21918E-07   -0.43958E-07 12460   0.749E-03    0.107E-03
DAV:   7    -0.383263878082E+02    0.13738E-08   -0.61032E-08 11100   0.477E-03
  45 F= -.38326388E+02 E0= -.38306353E+02  d E =-.220579E-02
 curvature:  -1.69 expect dE=-0.137E-01 dE for cont linesearch -0.501E-07
 trial: gam= 0.40402 g(F)=  0.574E-02 g(S)=  0.241E-02 ort =-0.693E-04 (trialstep = 0.124E+00)
 search vector abs. value=  0.345E-01
 bond charge predicted
       N       E                     dE             d eps       ncg     rms          rms(c)
DAV:   1    -0.383274849212E+02   -0.10971E-02   -0.10194E-01  9964   0.218E+00    0.193E-01
DAV:   2    -0.383273637765E+02    0.12114E-03   -0.75069E-03 11092   0.990E-01    0.768E-02
DAV:   3    -0.383273274563E+02    0.36320E-04   -0.56582E-04 12876   0.222E-01    0.408E-02
DAV:   4    -0.383272957733E+02    0.31683E-04   -0.64683E-05 13468   0.122E-01    0.119E-02
DAV:   5    -0.383272941843E+02    0.15890E-05   -0.21505E-05 11368   0.478E-02    0.384E-03
DAV:   6    -0.383272943300E+02   -0.14571E-06   -0.42297E-06 12688   0.209E-02    0.261E-03
DAV:   7    -0.383272942444E+02    0.85616E-07   -0.36485E-07 11928   0.117E-02    0.145E-03
DAV:   8    -0.383272941898E+02    0.54616E-07   -0.16815E-07 15240   0.507E-03    0.539E-04
DAV:   9    -0.383272941846E+02    0.51955E-08   -0.50265E-08 10488   0.234E-03
  46 F= -.38327294E+02 E0= -.38307310E+02  d E =-.906376E-03
 ZBRENT: can't locate minimum, use default step
 trial-energy change:   -0.000906  1 .order   -0.000908   -0.001007   -0.000810
 step:   0.4955(harm=  0.6334)  dis= 0.00683  next Energy=   -38.328961 (dE=-0.257E-02)
 bond charge predicted
       N       E                     dE             d eps       ncg     rms          rms(c)
DAV:   1    -0.383306139163E+02   -0.33197E-02   -0.91681E-01  9964   0.650E+00    0.581E-01
DAV:   2    -0.383294854990E+02    0.11284E-02   -0.67674E-02 11140   0.298E+00    0.230E-01
DAV:   3    -0.383291507451E+02    0.33475E-03   -0.51068E-03 12796   0.670E-01    0.122E-01
DAV:   4    -0.383288598131E+02    0.29093E-03   -0.58221E-04 13548   0.374E-01    0.346E-02
DAV:   5    -0.383288457889E+02    0.14024E-04   -0.19297E-04 11268   0.143E-01    0.114E-02
DAV:   6    -0.383288465788E+02   -0.78988E-06   -0.36653E-05 12804   0.617E-02    0.780E-03
DAV:   7    -0.383288459738E+02    0.60498E-06   -0.31872E-06 11880   0.357E-02    0.432E-03
DAV:   8    -0.383288457186E+02    0.25516E-06   -0.15353E-06 15820   0.148E-02    0.159E-03
DAV:   9    -0.383288457108E+02    0.78530E-08   -0.47127E-07 12808   0.699E-03    0.695E-04
DAV:  10    -0.383288457016E+02    0.91582E-08   -0.97737E-08 13524   0.272E-03
  47 F= -.38328846E+02 E0= -.38309008E+02  d E =-.245789E-02
 curvature:  -1.25 expect dE=-0.117E-01 dE for cont linesearch -0.125E-03
 trial: gam= 0.92203 g(F)=  0.777E-02 g(S)=  0.165E-02 ort = 0.186E-02 (trialstep = 0.162E+00)
 search vector abs. value=  0.422E-01
 bond charge predicted
       N       E                     dE             d eps       ncg     rms          rms(c)
DAV:   1    -0.383305080705E+02   -0.16624E-02   -0.21951E-01  9940   0.292E+00    0.251E-01
DAV:   2    -0.383302666267E+02    0.24144E-03   -0.12050E-02 11364   0.122E+00    0.116E-01
DAV:   3    -0.383301627524E+02    0.10387E-03   -0.10462E-03 11800   0.326E-01    0.655E-02
DAV:   4    -0.383300880046E+02    0.74748E-04   -0.20610E-04 12612   0.180E-01    0.193E-02
DAV:   5    -0.383300886558E+02   -0.65110E-06   -0.58743E-05 11120   0.862E-02    0.772E-03
DAV:   6    -0.383300888124E+02   -0.15668E-06   -0.71815E-06 12656   0.200E-02    0.377E-03
DAV:   7    -0.383300887450E+02    0.67420E-07   -0.10186E-06 15408   0.124E-02    0.155E-03
DAV:   8    -0.383300887644E+02   -0.19375E-07   -0.26589E-07 10904   0.429E-03    0.724E-04
DAV:   9    -0.383300887601E+02    0.43378E-08   -0.10938E-07 12380   0.214E-03    0.492E-04
DAV:  10    -0.383300887479E+02    0.12133E-07   -0.20045E-08  7760   0.122E-03    0.216E-04
DAV:  11    -0.383300887424E+02    0.55302E-08   -0.74526E-09  5912   0.759E-04
  48 F= -.38330089E+02 E0= -.38310184E+02  d E =-.124304E-02
 trial-energy change:   -0.001243  1 .order   -0.001248   -0.001805   -0.000692
 step:   0.2679(harm=  0.2630)  dis= 0.00414  next Energy=   -38.330313 (dE=-0.147E-02)
 bond charge predicted
       N       E                     dE             d eps       ncg     rms          rms(c)
DAV:   1    -0.383304799943E+02   -0.39125E-03   -0.93391E-02  9940   0.191E+00    0.164E-01
DAV:   2    -0.383303777400E+02    0.10225E-03   -0.51357E-03 11368   0.797E-01    0.756E-02
DAV:   3    -0.383303337316E+02    0.44008E-04   -0.44467E-04 11744   0.213E-01    0.426E-02
DAV:   4    -0.383303019803E+02    0.31751E-04   -0.87955E-05 12504   0.119E-01    0.126E-02
DAV:   5    -0.383303024097E+02   -0.42938E-06   -0.25210E-05 11104   0.568E-02    0.503E-03
DAV:   6    -0.383303025108E+02   -0.10106E-06   -0.31374E-06 12512   0.133E-02    0.245E-03
DAV:   7    -0.383303024836E+02    0.27175E-07   -0.43545E-07 15640   0.844E-03    0.101E-03
DAV:   8    -0.383303024949E+02   -0.11330E-07   -0.11232E-07 10852   0.285E-03    0.470E-04
DAV:   9    -0.383303024908E+02    0.40868E-08   -0.44242E-08 10132   0.140E-03
  49 F= -.38330302E+02 E0= -.38310352E+02  d E =-.145679E-02
 curvature:  -0.50 expect dE=-0.477E-02 dE for cont linesearch -0.440E-06
 trial: gam= 1.30040 g(F)=  0.902E-02 g(S)=  0.571E-03 ort =-0.193E-03 (trialstep = 0.961E-01)
 search vector abs. value=  0.804E-01
 bond charge predicted
       N       E                     dE             d eps       ncg     rms          rms(c)
DAV:   1    -0.383313770244E+02   -0.10745E-02   -0.14287E-01  9976   0.249E+00    0.218E-01
DAV:   2    -0.383312004544E+02    0.17657E-03   -0.91943E-03 11200   0.110E+00    0.907E-02
DAV:   3    -0.383311413923E+02    0.59062E-04   -0.68957E-04 12688   0.257E-01    0.480E-02
DAV:   4    -0.383310968630E+02    0.44529E-04   -0.88890E-05 13560   0.143E-01    0.136E-02
DAV:   5    -0.383310953001E+02    0.15629E-05   -0.31286E-05 11164   0.574E-02    0.461E-03
DAV:   6    -0.383310955694E+02   -0.26928E-06   -0.63170E-06 13068   0.265E-02    0.334E-03
DAV:   7    -0.383310954764E+02    0.93024E-07   -0.56166E-07 11824   0.151E-02    0.182E-03
DAV:   8    -0.383310954402E+02    0.36210E-07   -0.25796E-07 15784   0.596E-03    0.675E-04
DAV:   9    -0.383310954388E+02    0.13601E-08   -0.79992E-08 12144   0.288E-03
  50 F= -.38331095E+02 E0= -.38311207E+02  d E =-.792948E-03
 ZBRENT: can't locate minimum, use default step
 trial-energy change:   -0.000793  1 .order   -0.000794   -0.000898   -0.000691
 step:   0.3846(harm=  0.4173)  dis= 0.00799  next Energy=   -38.332251 (dE=-0.195E-02)
 bond charge predicted
       N       E                     dE             d eps       ncg     rms          rms(c)
DAV:   1    -0.383348314577E+02   -0.37360E-02   -0.12843E+00  9980   0.743E+00    0.655E-01
DAV:   2    -0.383331796159E+02    0.16518E-02   -0.82793E-02 11208   0.329E+00    0.272E-01
DAV:   3    -0.383326372238E+02    0.54239E-03   -0.62339E-03 12568   0.777E-01    0.144E-01
DAV:   4    -0.383322323852E+02    0.40484E-03   -0.80977E-04 13584   0.433E-01    0.400E-02
DAV:   5    -0.383322184556E+02    0.13930E-04   -0.28058E-04 11168   0.173E-01    0.138E-02
DAV:   6    -0.383322201436E+02   -0.16879E-05   -0.54899E-05 13148   0.792E-02    0.996E-03
DAV:   7    -0.383322194238E+02    0.71977E-06   -0.49958E-06 11872   0.463E-02    0.538E-03
DAV:   8    -0.383322192669E+02    0.15688E-06   -0.23191E-06 15920   0.176E-02    0.199E-03
DAV:   9    -0.383322192712E+02   -0.43124E-08   -0.72910E-07 13380   0.890E-03    0.884E-04
DAV:  10    -0.383322192610E+02    0.10169E-07   -0.15216E-07 12912   0.323E-03    0.717E-04
DAV:  11    -0.383322192353E+02    0.25785E-07   -0.36229E-08  9520   0.164E-03    0.170E-04
DAV:  12    -0.383322192289E+02    0.63578E-08   -0.74732E-09  5568   0.798E-04
  51 F= -.38332219E+02 E0= -.38312517E+02  d E =-.191674E-02
 curvature:  -1.78 expect dE=-0.113E-01 dE for cont linesearch -0.943E-05
 trial: gam= 0.05608 g(F)=  0.526E-02 g(S)=  0.111E-02 ort = 0.653E-03 (trialstep = 0.154E+00)
 search vector abs. value=  0.670E-02
 bond charge predicted
       N       E                     dE             d eps       ncg     rms          rms(c)
DAV:   1    -0.383330340096E+02   -0.81477E-03   -0.33719E-02 10248   0.114E+00    0.106E-01
DAV:   2    -0.383329847771E+02    0.49232E-04   -0.22310E-03 11724   0.549E-01    0.543E-02
DAV:   3    -0.383329648058E+02    0.19971E-04   -0.25508E-04 11592   0.169E-01    0.325E-02
DAV:   4    -0.383329489041E+02    0.15902E-04   -0.53536E-05 11476   0.975E-02    0.120E-02
DAV:   5    -0.383329480901E+02    0.81399E-06   -0.12489E-05 11040   0.531E-02    0.435E-03
DAV:   6    -0.383329480624E+02    0.27671E-07   -0.26831E-06 11848   0.199E-02    0.203E-03
DAV:   7    -0.383329480578E+02    0.46912E-08   -0.35920E-07 11776   0.121E-02    0.792E-04
DAV:   8    -0.383329480704E+02   -0.12633E-07   -0.14264E-07 11100   0.278E-03    0.345E-04
DAV:   9    -0.383329480755E+02   -0.51150E-08   -0.13393E-08  5808   0.188E-03
  52 F= -.38332948E+02 E0= -.38313360E+02  d E =-.728847E-03
 trial-energy change:   -0.000729  1 .order   -0.000727   -0.000986   -0.000467
 step:   0.2860(harm=  0.2925)  dis= 0.00171  next Energy=   -38.333150 (dE=-0.931E-03)
 bond charge predicted
       N       E                     dE             d eps       ncg     rms          rms(c)
DAV:   1    -0.383332191527E+02   -0.27108E-03   -0.24886E-02 10248   0.981E-01    0.908E-02
DAV:   2    -0.383331830680E+02    0.36085E-04   -0.16430E-03 11700   0.470E-01    0.466E-02
DAV:   3    -0.383331682249E+02    0.14843E-04   -0.18753E-04 11572   0.144E-01    0.279E-02
DAV:   4    -0.383331564687E+02    0.11756E-04   -0.39487E-05 11468   0.828E-02    0.102E-02
DAV:   5    -0.383331558633E+02    0.60535E-06   -0.91698E-06 10988   0.455E-02    0.373E-03
DAV:   6    -0.383331558346E+02    0.28767E-07   -0.19642E-06 11828   0.170E-02    0.174E-03
DAV:   7    -0.383331558307E+02    0.38508E-08   -0.26050E-07 11840   0.103E-02    0.680E-04
DAV:   8    -0.383331558399E+02   -0.91645E-08   -0.10476E-07 10960   0.237E-03    0.295E-04
DAV:   9    -0.383331558443E+02   -0.44233E-08   -0.94811E-09  5628   0.155E-03
  53 F= -.38333156E+02 E0= -.38313665E+02  d E =-.936615E-03
 curvature:  -0.15 expect dE=-0.172E-02 dE for cont linesearch -0.178E-06
 trial: gam= 1.75783 g(F)=  0.791E-02 g(S)=  0.334E-02 ort = 0.884E-04 (trialstep = 0.374E-01)
 search vector abs. value=  0.323E-01
 bond charge predicted
       N       E                     dE             d eps       ncg     rms          rms(c)
DAV:   1    -0.383336730747E+02   -0.51723E-03   -0.80133E-03 11216   0.751E-01    0.859E-02
DAV:   2    -0.383335906173E+02    0.82457E-04   -0.90196E-04 11504   0.404E-01    0.354E-02
DAV:   3    -0.383335775407E+02    0.13077E-04   -0.75963E-05 13128   0.841E-02    0.174E-02
DAV:   4    -0.383335707848E+02    0.67559E-05   -0.95452E-06 14628   0.465E-02    0.470E-03
DAV:   5    -0.383335704211E+02    0.36364E-06   -0.37285E-06 10796   0.197E-02    0.161E-03
DAV:   6    -0.383335703951E+02    0.26073E-07   -0.54344E-07 13592   0.616E-03    0.874E-04
DAV:   7    -0.383335704001E+02   -0.50654E-08   -0.59224E-08 12148   0.500E-03
  54 F= -.38333570E+02 E0= -.38314086E+02  d E =-.414556E-03
 ZBRENT: can't locate minimum, use default step
 trial-energy change:   -0.000415  1 .order   -0.000414   -0.000427   -0.000401
 step:   0.1497(harm=  0.6198)  dis= 0.00181  next Energy=   -38.336690 (dE=-0.353E-02)
 bond charge predicted
       N       E                     dE             d eps       ncg     rms          rms(c)
DAV:   1    -0.383355954961E+02   -0.20251E-02   -0.72268E-02 11292   0.226E+00    0.258E-01
DAV:   2    -0.383348470626E+02    0.74843E-03   -0.80794E-03 11504   0.121E+00    0.106E-01
DAV:   3    -0.383347326467E+02    0.11442E-03   -0.68174E-04 13180   0.251E-01    0.521E-02
DAV:   4    -0.383346737004E+02    0.58946E-04   -0.85602E-05 14688   0.140E-01    0.142E-02
DAV:   5    -0.383346713737E+02    0.23267E-05   -0.33585E-05 10836   0.590E-02    0.484E-03
DAV:   6    -0.383346712846E+02    0.89101E-07   -0.49174E-06 13520   0.184E-02    0.263E-03
DAV:   7    -0.383346712602E+02    0.24433E-07   -0.53731E-07 13720   0.149E-02    0.132E-03
DAV:   8    -0.383346713023E+02   -0.42110E-07   -0.16709E-07 12808   0.346E-03    0.650E-04
DAV:   9    -0.383346713102E+02   -0.78821E-08   -0.39330E-08  9820   0.243E-03
  55 F= -.38334671E+02 E0= -.38315207E+02  d E =-.151547E-02
 curvature:  -0.31 expect dE=-0.204E-02 dE for cont linesearch -0.739E-03
 ZBRENT: increasing intervall
 opt :   0.3743  next Energy=   -38.336234 (dE=-0.308E-02)
 bond charge predicted
       N       E                     dE             d eps       ncg     rms          rms(c)
DAV:   1    -0.383399329973E+02   -0.52617E-02   -0.28973E-01 11444   0.453E+00    0.515E-01
DAV:   2    -0.383369192970E+02    0.30137E-02   -0.31851E-02 11512   0.239E+00    0.212E-01
DAV:   3    -0.383364637827E+02    0.45551E-03   -0.26943E-03 13148   0.497E-01    0.104E-01
DAV:   4    -0.383362297733E+02    0.23401E-03   -0.33801E-04 14676   0.279E-01    0.282E-02
DAV:   5    -0.383362215832E+02    0.81901E-05   -0.13418E-04 10860   0.118E-01    0.964E-03
DAV:   6    -0.383362213771E+02    0.20606E-06   -0.19610E-05 13500   0.364E-02    0.527E-03
DAV:   7    -0.383362212126E+02    0.16453E-06   -0.21254E-06 13672   0.296E-02    0.263E-03
DAV:   8    -0.383362213208E+02   -0.10819E-06   -0.66341E-07 12780   0.690E-03    0.128E-03
DAV:   9    -0.383362213327E+02   -0.11935E-07   -0.16362E-07 13152   0.485E-03    0.464E-04
DAV:  10    -0.383362213627E+02   -0.30027E-07   -0.38207E-08 10192   0.184E-03    0.311E-04
DAV:  11    -0.383362213688E+02   -0.60454E-08   -0.84013E-09  5648   0.124E-03
  56 F= -.38336221E+02 E0= -.38316797E+02  d E =-.306552E-02
 curvature:  -0.65 expect dE=-0.173E-02 dE for cont linesearch -0.500E-03
 ZBRENT: increasing intervall
 opt :   0.8234  next Energy=   -38.336744 (dE=-0.359E-02)
 bond charge predicted
       N       E                     dE             d eps       ncg     rms          rms(c)
DAV:   1    -0.383514896809E+02   -0.15268E-01   -0.11621E+00 11416   0.909E+00    0.103E+00
DAV:   2    -0.383395417797E+02    0.11948E-01   -0.12708E-01 11536   0.475E+00    0.424E-01
DAV:   3    -0.383377421885E+02    0.17996E-02   -0.10733E-02 13044   0.978E-01    0.208E-01
DAV:   4    -0.383368092465E+02    0.93294E-03   -0.13563E-03 14716   0.560E-01    0.566E-02
DAV:   5    -0.383367776942E+02    0.31552E-04   -0.53170E-04 10964   0.232E-01    0.192E-02
DAV:   6    -0.383367770291E+02    0.66504E-06   -0.77714E-05 13436   0.704E-02    0.105E-02
DAV:   7    -0.383367762569E+02    0.77221E-06   -0.80043E-06 13596   0.580E-02    0.522E-03
DAV:   8    -0.383367765626E+02   -0.30572E-06   -0.25180E-06 12756   0.134E-02    0.245E-03
DAV:   9    -0.383367765798E+02   -0.17170E-07   -0.62155E-07 13764   0.945E-03    0.898E-04
DAV:  10    -0.383367766453E+02   -0.65542E-07   -0.13764E-07 11428   0.343E-03    0.600E-04
DAV:  11    -0.383367766565E+02   -0.11189E-07   -0.41673E-08 10896   0.238E-03    0.202E-04
DAV:  12    -0.383367766658E+02   -0.92532E-08   -0.10096E-08  5648   0.109E-03
  57 F= -.38336777E+02 E0= -.38317430E+02  d E =-.362082E-02
 curvature:  -0.67 expect dE=-0.317E-02 dE for cont linesearch -0.132E-03
 ZBRENT: bracketing found
 ZBRENT: interpolating
 opt :   0.6733  next Energy=   -38.336965 (dE=-0.381E-02)
 bond charge predicted
       N       E                     dE             d eps       ncg     rms          rms(c)
DAV:   1    -0.383386258517E+02   -0.18492E-02   -0.12858E-01 11416   0.298E+00    0.344E-01
[...]
DAV:   5    -0.383637285033E+02   -0.11434E-07   -0.26934E-08  8120   0.137E-03    0.176E-04
DAV:   6    -0.383637285022E+02    0.11264E-08   -0.46621E-09  5316   0.764E-04
 227 F= -.38363729E+02 E0= -.38353410E+02  d E =-.220569E-05
 curvature:  -1.20 expect dE=-0.172E-04 dE for cont linesearch -0.601E-06
 ZBRENT: increasing intervall
 opt :   0.1171  next Energy=   -38.363730 (dE=-0.349E-05)
 bond charge predicted
       N       E                     dE             d eps       ncg     rms          rms(c)
DAV:   1    -0.383637275249E+02    0.97836E-06   -0.13798E-03  9884   0.213E-01    0.125E-02
DAV:   2    -0.383637300541E+02   -0.25292E-05   -0.48637E-05 12352   0.620E-02    0.698E-03
DAV:   3    -0.383637298452E+02    0.20886E-06   -0.25810E-06 11772   0.153E-02    0.412E-03
DAV:   4    -0.383637297577E+02    0.87468E-07   -0.48863E-07 12360   0.654E-03    0.150E-03
DAV:   5    -0.383637297742E+02   -0.16456E-07   -0.11427E-07 12012   0.273E-03    0.358E-04
DAV:   6    -0.383637297718E+02    0.23833E-08   -0.13682E-08  5620   0.132E-03
 228 F= -.38363730E+02 E0= -.38353418E+02  d E =-.347535E-05
 curvature:  -2.56 expect dE=-0.103E-04 dE for cont linesearch -0.586E-07
 trial: gam= 0.08111 g(F)=  0.201E-05 g(S)=  0.200E-05 ort = 0.661E-05 (trialstep = 0.277E-01)
 search vector abs. value=  0.176E-04
 bond charge predicted
       N       E                     dE             d eps       ncg     rms          rms(c)
DAV:   1    -0.383637298968E+02   -0.12262E-06   -0.23932E-06 10156   0.955E-03    0.781E-04
DAV:   2    -0.383637299021E+02   -0.53074E-08   -0.12784E-07 12168   0.371E-03    0.359E-04
DAV:   3    -0.383637298961E+02    0.60795E-08   -0.82195E-09  5312   0.972E-04
 229 F= -.38363730E+02 E0= -.38353418E+02  d E =-.124235E-06
 ZBRENT: can't locate minimum, use default step
 trial-energy change:   -0.000000  1 .order   -0.000000   -0.000000   -0.000000
 step:   0.1107(harm=  0.3575)  dis= 0.00005  next Energy=   -38.363731 (dE=-0.812E-06)
 bond charge predicted
       N       E                     dE             d eps       ncg     rms          rms(c)
DAV:   1    -0.383637302754E+02   -0.37330E-06   -0.21491E-05 10084   0.289E-02    0.235E-03
DAV:   2    -0.383637302954E+02   -0.19937E-07   -0.11380E-06 11980   0.115E-02    0.110E-03
DAV:   3    -0.383637302731E+02    0.22270E-07   -0.98010E-08 11420   0.298E-03    0.613E-04
DAV:   4    -0.383637302599E+02    0.13249E-07   -0.12802E-08  6280   0.126E-03    0.206E-04
DAV:   5    -0.383637302548E+02    0.50663E-08   -0.47975E-09  5048   0.639E-04
 230 F= -.38363730E+02 E0= -.38353419E+02  d E =-.482965E-06
 curvature:  -0.31 expect dE=-0.944E-06 dE for cont linesearch -0.289E-06
 ZBRENT: increasing intervall
 opt :   0.2767  next Energy=   -38.363731 (dE=-0.114E-05)
 bond charge predicted
       N       E                     dE             d eps       ncg     rms          rms(c)
DAV:   1    -0.383637309808E+02   -0.72092E-06   -0.85771E-05 10084   0.579E-02    0.467E-03
DAV:   2    -0.383637310395E+02   -0.58732E-07   -0.46447E-06 11940   0.234E-02    0.213E-03
DAV:   3    -0.383637309882E+02    0.51349E-07   -0.40047E-07 12368   0.603E-03    0.119E-03
DAV:   4    -0.383637309556E+02    0.32526E-07   -0.58916E-08 11336   0.248E-03    0.418E-04
DAV:   5    -0.383637309445E+02    0.11171E-07   -0.12239E-08  5240   0.105E-03    0.114E-04
DAV:   6    -0.383637309429E+02    0.16012E-08   -0.28524E-09  5072   0.634E-04
 231 F= -.38363731E+02 E0= -.38353421E+02  d E =-.117104E-05
 curvature:  -0.70 expect dE=-0.185E-05 dE for cont linesearch -0.564E-06
 ZBRENT: increasing intervall
 opt :   0.6088  next Energy=   -38.363732 (dE=-0.232E-05)
 bond charge predicted
       N       E                     dE             d eps       ncg     rms          rms(c)
DAV:   1    -0.383637322659E+02   -0.13214E-05   -0.34294E-04 10088   0.116E-01    0.933E-03
DAV:   2    -0.383637324299E+02   -0.16401E-06   -0.18605E-05 11896   0.468E-02    0.427E-03
DAV:   3    -0.383637322865E+02    0.14343E-06   -0.16010E-06 12416   0.121E-02    0.238E-03
DAV:   4    -0.383637321882E+02    0.98256E-07   -0.24181E-07 12760   0.498E-03    0.833E-04
DAV:   5    -0.383637321619E+02    0.26331E-07   -0.50866E-08  9940   0.208E-03    0.234E-04
DAV:   6    -0.383637321589E+02    0.30254E-08   -0.78802E-09  5268   0.995E-04
 232 F= -.38363732E+02 E0= -.38353425E+02  d E =-.238703E-05
 curvature:  -1.42 expect dE=-0.298E-05 dE for cont linesearch -0.758E-06
 ZBRENT: increasing intervall
 opt :   1.2729  next Energy=   -38.363734 (dE=-0.395E-05)
 bond charge predicted
       N       E                     dE             d eps       ncg     rms          rms(c)
DAV:   1    -0.383637342838E+02   -0.21219E-05   -0.13717E-03 10084   0.232E-01    0.187E-02
DAV:   2    -0.383637347983E+02   -0.51448E-06   -0.74531E-05 11876   0.938E-02    0.853E-03
DAV:   3    -0.383637343500E+02    0.44827E-06   -0.64297E-06 12408   0.243E-02    0.476E-03
DAV:   4    -0.383637340182E+02    0.33185E-06   -0.96794E-07 12724   0.990E-03    0.166E-03
DAV:   5    -0.383637339525E+02    0.65627E-07   -0.20820E-07 11776   0.412E-03    0.472E-04
DAV:   6    -0.383637339454E+02    0.71295E-08   -0.31819E-08  9040   0.187E-03
 233 F= -.38363734E+02 E0= -.38353433E+02  d E =-.417358E-05
 curvature:  -2.94 expect dE=-0.764E-05 dE for cont linesearch -0.456E-06
 ZBRENT: increasing intervall
 opt :   2.6011  next Energy=   -38.363734 (dE=-0.450E-05)
 bond charge predicted
       N       E                     dE             d eps       ncg     rms          rms(c)
DAV:   1    -0.383637361431E+02   -0.21906E-05   -0.54870E-03 10084   0.464E-01    0.373E-02
DAV:   2    -0.383637378894E+02   -0.17463E-05   -0.29798E-04 11876   0.187E-01    0.171E-02
DAV:   3    -0.383637363461E+02    0.15433E-05   -0.25691E-05 12384   0.485E-02    0.952E-03
DAV:   4    -0.383637351458E+02    0.12003E-05   -0.38895E-06 12712   0.198E-02    0.333E-03
DAV:   5    -0.383637349578E+02    0.18796E-06   -0.83433E-07 11768   0.821E-03    0.943E-04
DAV:   6    -0.383637349430E+02    0.14777E-07   -0.12963E-07 10836   0.372E-03    0.464E-04
DAV:   7    -0.383637349449E+02   -0.18726E-08   -0.12110E-08  5800   0.212E-03
 234 F= -.38363735E+02 E0= -.38353445E+02  d E =-.517307E-05
 curvature:  -2.11 expect dE=-0.196E-04 dE for cont linesearch -0.858E-07
 trial: gam= 0.00000 g(F)=  0.726E-05 g(S)=  0.205E-05 ort =-0.847E-06 (trialstep = 0.542E+00)
 search vector abs. value=  0.931E-05
 bond charge predicted
       N       E                     dE             d eps       ncg     rms          rms(c)
DAV:   1    -0.383637340446E+02    0.89846E-06   -0.59859E-04 10056   0.150E-01    0.158E-02
DAV:   2    -0.383637324599E+02    0.15847E-05   -0.44412E-05 11692   0.662E-02    0.858E-03
DAV:   3    -0.383637317140E+02    0.74587E-06   -0.38481E-06 11652   0.199E-02    0.499E-03
DAV:   4    -0.383637313314E+02    0.38263E-06   -0.14435E-06 11648   0.118E-02    0.146E-03
DAV:   5    -0.383637313713E+02   -0.39891E-07   -0.34279E-07 11428   0.659E-03    0.629E-04
DAV:   6    -0.383637313791E+02   -0.77816E-08   -0.43560E-08  9408   0.171E-03
 235 F= -.38363731E+02 E0= -.38353421E+02  d E =0.356582E-05
 trial-energy change:    0.000004  1 .order    0.000003   -0.000005    0.000012
 step:   0.1531(harm=  0.1644)  dis= 0.00004  next Energy=   -38.363736 (dE=-0.706E-06)
 bond charge predicted
       N       E                     dE             d eps       ncg     rms          rms(c)
DAV:   1    -0.383637368001E+02   -0.54288E-05   -0.30797E-04 10056   0.108E-01    0.113E-02
DAV:   2    -0.383637363056E+02    0.49452E-06   -0.22882E-05 11664   0.473E-02    0.615E-03
DAV:   3    -0.383637358506E+02    0.45499E-06   -0.19718E-06 11640   0.143E-02    0.357E-03
DAV:   4    -0.383637356540E+02    0.19664E-06   -0.75034E-07 11652   0.839E-03    0.105E-03
DAV:   5    -0.383637356286E+02    0.25400E-07   -0.17768E-07 11424   0.468E-03    0.454E-04
DAV:   6    -0.383637356236E+02    0.49126E-08   -0.19414E-08  5896   0.120E-03
 236 F= -.38363736E+02 E0= -.38353440E+02  d E =-.678753E-06
 curvature:  -0.08 expect dE=-0.531E-06 dE for cont linesearch -0.587E-08
 trial: gam= 0.60660 g(F)=  0.379E-05 g(S)=  0.268E-05 ort = 0.816E-06 (trialstep = 0.398E+00)
 search vector abs. value=  0.109E-04
 bond charge predicted
       N       E                     dE             d eps       ncg     rms          rms(c)
DAV:   1    -0.383637444371E+02   -0.88085E-05   -0.30384E-04 12592   0.168E-01    0.206E-02
DAV:   2    -0.383637382553E+02    0.61818E-05   -0.42680E-05 12308   0.891E-02    0.811E-03
DAV:   3    -0.383637375172E+02    0.73805E-06   -0.34732E-06 13468   0.182E-02    0.396E-03
DAV:   4    -0.383637372515E+02    0.26577E-06   -0.58202E-07 13508   0.957E-03    0.106E-03
DAV:   5    -0.383637372728E+02   -0.21379E-07   -0.16267E-07 11092   0.521E-03    0.361E-04
DAV:   6    -0.383637372788E+02   -0.59567E-08   -0.34446E-08  8484   0.171E-03
 237 F= -.38363737E+02 E0= -.38353440E+02  d E =-.165515E-05
 trial-energy change:   -0.000002  1 .order   -0.000002   -0.000003   -0.000001
 step:   0.7317(harm=  0.5448)  dis= 0.00017  next Energy=   -38.363738 (dE=-0.191E-05)
 bond charge predicted
       N       E                     dE             d eps       ncg     rms          rms(c)
DAV:   1    -0.383637423660E+02   -0.50932E-05   -0.21520E-04 12576   0.141E-01    0.174E-02
DAV:   2    -0.383637379540E+02    0.44120E-05   -0.30150E-05 12300   0.751E-02    0.681E-03
DAV:   3    -0.383637374431E+02    0.51093E-06   -0.24757E-06 13524   0.154E-02    0.333E-03
DAV:   4    -0.383637372637E+02    0.17932E-06   -0.41261E-07 13476   0.817E-03    0.901E-04
DAV:   5    -0.383637372827E+02   -0.18973E-07   -0.11465E-07 10976   0.444E-03    0.308E-04
DAV:   6    -0.383637372877E+02   -0.49399E-08   -0.25003E-08  7584   0.145E-03
 238 F= -.38363737E+02 E0= -.38353438E+02  d E =-.166402E-05
 curvature:   0.26 expect dE= 0.700E-06 dE for cont linesearch  0.797E-07
 trial: gam= 0.00000 g(F)=  0.182E-05 g(S)=  0.870E-06 ort =-0.183E-05 (trialstep = 0.464E+00)
 search vector abs. value=  0.269E-05
 bond charge predicted
       N       E                     dE             d eps       ncg     rms          rms(c)
DAV:   1    -0.383637371594E+02    0.12337E-06   -0.11338E-04 11420   0.918E-02    0.919E-03
DAV:   2    -0.383637368517E+02    0.30763E-06   -0.15537E-05 11456   0.441E-02    0.448E-03
DAV:   3    -0.383637365850E+02    0.26671E-06   -0.11285E-06 13108   0.915E-03    0.244E-03
DAV:   4    -0.383637364207E+02    0.16429E-06   -0.20087E-07 12948   0.522E-03    0.632E-04
DAV:   5    -0.383637364093E+02    0.11415E-07   -0.66476E-08 10444   0.226E-03    0.225E-04
DAV:   6    -0.383637364142E+02   -0.49181E-08   -0.63573E-09  5288   0.944E-04
 239 F= -.38363736E+02 E0= -.38353430E+02  d E =0.873428E-06
 trial-energy change:    0.000001  1 .order    0.000001   -0.000001    0.000003
 step:   0.1337(harm=  0.1395)  dis= 0.00001  next Energy=   -38.363737 (dE=-0.179E-06)
 bond charge predicted
       N       E                     dE             d eps       ncg     rms          rms(c)
DAV:   1    -0.383637376401E+02   -0.12307E-05   -0.57275E-05 11336   0.652E-02    0.658E-03
DAV:   2    -0.383637375023E+02    0.13771E-06   -0.79083E-06 11448   0.315E-02    0.318E-03
DAV:   3    -0.383637374654E+02    0.36960E-07   -0.58000E-07 12988   0.656E-03    0.173E-03
DAV:   4    -0.383637374526E+02    0.12785E-07   -0.10173E-07 12572   0.377E-03    0.451E-04
DAV:   5    -0.383637374609E+02   -0.83387E-08   -0.33971E-08  9124   0.163E-03
 240 F= -.38363737E+02 E0= -.38353436E+02  d E =-.173271E-06
 curvature:  -0.07 expect dE=-0.894E-07 dE for cont linesearch -0.241E-09
 trial: gam= 0.44002 g(F)=  0.120E-05 g(S)=  0.794E-07 ort = 0.964E-07 (trialstep = 0.398E+00)
 search vector abs. value=  0.189E-05
 bond charge predicted
       N       E                     dE             d eps       ncg     rms          rms(c)
DAV:   1    -0.383637381607E+02   -0.70814E-06   -0.59246E-05 10456   0.533E-02    0.522E-03
DAV:   2    -0.383637380620E+02    0.98773E-07   -0.47562E-06 11476   0.267E-02    0.239E-03
DAV:   3    -0.383637379898E+02    0.72179E-07   -0.43227E-07 13052   0.686E-03    0.125E-03
DAV:   4    -0.383637379465E+02    0.43256E-07   -0.72983E-08 11996   0.317E-03    0.382E-04
DAV:   5    -0.383637379369E+02    0.96688E-08   -0.19323E-08  5296   0.153E-03
 241 F= -.38363738E+02 E0= -.38353439E+02  d E =-.475926E-06
 trial-energy change:   -0.000000  1 .order   -0.000000   -0.000001   -0.000000
 step:   0.5495(harm=  0.8997)  dis= 0.00007  next Energy=   -38.363738 (dE=-0.535E-06)
 bond charge predicted
       N       E                     dE             d eps       ncg     rms          rms(c)
DAV:   1    -0.383637381000E+02   -0.15351E-06   -0.85680E-06 10548   0.202E-02    0.199E-03
DAV:   2    -0.383637380988E+02    0.12451E-08   -0.67062E-07 11464   0.101E-02    0.918E-04
DAV:   3    -0.383637380800E+02    0.18823E-07   -0.59550E-08  9340   0.260E-03    0.475E-04
DAV:   4    -0.383637380710E+02    0.89672E-08   -0.96828E-09  5088   0.123E-03
 242 F= -.38363738E+02 E0= -.38353440E+02  d E =-.610073E-06
 curvature:  -0.33 expect dE=-0.142E-06 dE for cont linesearch -0.523E-07
 trial: gam= 0.04740 g(F)=  0.279E-06 g(S)=  0.154E-06 ort = 0.548E-06 (trialstep = 0.428E+00)
 search vector abs. value=  0.490E-06
 bond charge predicted
       N       E                     dE             d eps       ncg     rms          rms(c)
DAV:   1    -0.383637383018E+02   -0.22187E-06   -0.15380E-05  9960   0.251E-02    0.270E-03
DAV:   2    -0.383637382314E+02    0.70439E-07   -0.92896E-07 11160   0.113E-02    0.129E-03
DAV:   3    -0.383637382307E+02    0.70440E-09   -0.85770E-08 12440   0.320E-03
 243 F= -.38363738E+02 E0= -.38353440E+02  d E =-.159699E-06
 ZBRENT: can't locate minimum, use default step
 trial-energy change:   -0.000000  1 .order   -0.000000   -0.000000   -0.000000
 step:   1.7139(harm=  5.3770)  dis= 0.00008  next Energy=   -38.363739 (dE=-0.124E-05)
 bond charge predicted
       N       E                     dE             d eps       ncg     rms          rms(c)
DAV:   1    -0.383637393811E+02   -0.11497E-05   -0.13851E-04  9964   0.750E-02    0.820E-03
DAV:   2    -0.383637387959E+02    0.58525E-06   -0.80725E-06 11172   0.336E-02    0.393E-03
DAV:   3    -0.383637386761E+02    0.11981E-06   -0.77575E-07 13652   0.940E-03    0.200E-03
DAV:   4    -0.383637386260E+02    0.50054E-07   -0.13403E-07 13252   0.526E-03    0.481E-04
DAV:   5    -0.383637386417E+02   -0.15708E-07   -0.57281E-08 10248   0.203E-03    0.174E-04
DAV:   6    -0.383637386424E+02   -0.61664E-09   -0.42217E-09  5252   0.680E-04
 244 F= -.38363739E+02 E0= -.38353440E+02  d E =-.571357E-06
 curvature:  -1.30 expect dE=-0.788E-06 dE for cont linesearch -0.174E-06
 ZBRENT: increasing intervall
 opt :   4.2848  next Energy=   -38.363739 (dE=-0.804E-06)
 bond charge predicted
       N       E                     dE             d eps       ncg     rms          rms(c)
DAV:   1    -0.383637419219E+02   -0.32801E-05   -0.55469E-04  9972   0.151E-01    0.163E-02
DAV:   2    -0.383637397916E+02    0.21303E-05   -0.33200E-05 11120   0.681E-02    0.773E-03
DAV:   3    -0.383637392314E+02    0.56019E-06   -0.30943E-06 13720   0.189E-02    0.396E-03
DAV:   4    -0.383637389894E+02    0.24200E-06   -0.52244E-07 13572   0.103E-02    0.952E-04
DAV:   5    -0.383637390204E+02   -0.31027E-07   -0.21788E-07 10604   0.397E-03    0.342E-04
DAV:   6    -0.383637390222E+02   -0.18067E-08   -0.16574E-08  5764   0.132E-03
 245 F= -.38363739E+02 E0= -.38353440E+02  d E =-.951216E-06
 curvature:  -1.73 expect dE=-0.475E-05 dE for cont linesearch -0.947E-09
 trial: gam= 6.35761 g(F)=  0.243E-05 g(S)=  0.309E-06 ort = 0.164E-07 (trialstep = 0.258E-01)
 search vector abs. value=  0.227E-04
 bond charge predicted
       N       E                     dE             d eps       ncg     rms          rms(c)
DAV:   1    -0.383637390881E+02   -0.67711E-07   -0.27321E-06  9892   0.100E-02    0.862E-04
DAV:   2    -0.383637390880E+02    0.87766E-10   -0.13451E-07 11512   0.385E-03    0.452E-04
DAV:   3    -0.383637390916E+02   -0.35352E-08   -0.94573E-09  5240   0.116E-03
 246 F= -.38363739E+02 E0= -.38353440E+02  d E =-.693522E-07
 ZBRENT: can't locate minimum, use default step
 trial-energy change:   -0.000000  1 .order   -0.000000   -0.000000   -0.000000
 step:   0.1033(harm=  0.2125)  dis= 0.00003  next Energy=   -38.363739 (dE=-0.303E-06)
 bond charge predicted
       N       E                     dE             d eps       ncg     rms          rms(c)
DAV:   1    -0.383637392353E+02   -0.14726E-06   -0.24543E-05  9880   0.298E-02    0.258E-03
DAV:   2    -0.383637392387E+02   -0.33783E-08   -0.11930E-06 12144   0.107E-02    0.137E-03
DAV:   3    -0.383637392363E+02    0.24083E-08   -0.85362E-08 11312   0.292E-03
 247 F= -.38363739E+02 E0= -.38353442E+02  d E =-.214051E-06
 curvature:  -0.56 expect dE=-0.493E-06 dE for cont linesearch -0.382E-07
 trial: gam= 0.09501 g(F)=  0.249E-06 g(S)=  0.634E-06 ort = 0.125E-05 (trialstep = 0.413E-01)
 search vector abs. value=  0.133E-05
 bond charge predicted
       N       E                     dE             d eps       ncg     rms          rms(c)
DAV:   1    -0.383637392875E+02   -0.48771E-07   -0.40470E-07 12788   0.660E-03    0.757E-04
DAV:   2    -0.383637392845E+02    0.29299E-08   -0.59783E-08  9204   0.326E-03
 248 F= -.38363739E+02 E0= -.38353442E+02  d E =-.482491E-07
 trial-energy change:   -0.000000  1 .order   -0.000000   -0.000000   -0.000000
 step:   0.1509(harm=  0.1509)  dis= 0.00001  next Energy=   -38.363739 (dE=-0.756E-07)
 bond charge predicted
       N       E                     dE             d eps       ncg     rms          rms(c)
DAV:   1    -0.383637394507E+02   -0.16322E-06   -0.27711E-06 11688   0.153E-02    0.206E-03
DAV:   2    -0.383637394013E+02    0.49355E-07   -0.39576E-07 11700   0.876E-03    0.872E-04
DAV:   3    -0.383637393769E+02    0.24386E-07   -0.33039E-08  7960   0.183E-03    0.427E-04
DAV:   4    -0.383637393645E+02    0.12432E-07   -0.61284E-09  5064   0.108E-03    0.102E-04
DAV:   5    -0.383637393614E+02    0.31428E-08   -0.37533E-09  4992   0.669E-04
 249 F= -.38363739E+02 E0= -.38353442E+02  d E =-.125083E-06
 curvature:  -0.10 expect dE=-0.511E-07 dE for cont linesearch -0.348E-07
 trial: gam=-0.11283 g(F)=  0.251E-06 g(S)=  0.262E-06 ort = 0.680E-06 (trialstep = 0.632E-01)
 search vector abs. value=  0.376E-06
 bond charge predicted
       N       E                     dE             d eps       ncg     rms          rms(c)
DAV:   1    -0.383637394040E+02   -0.39467E-07   -0.29434E-07 13104   0.550E-03    0.694E-04
DAV:   2    -0.383637393983E+02    0.57112E-08   -0.42365E-08  7084   0.288E-03
 250 F= -.38363739E+02 E0= -.38353442E+02  d E =-.368987E-07
 ZBRENT: can't locate minimum, use default step
 trial-energy change:   -0.000000  1 .order   -0.000000   -0.000000   -0.000000
 step:   0.2530(harm=  0.4217)  dis= 0.00001  next Energy=   -38.363739 (dE=-0.918E-07)
 bond charge predicted
       N       E                     dE             d eps       ncg     rms          rms(c)
DAV:   1    -0.383637395690E+02   -0.16506E-06   -0.26390E-06 13204   0.166E-02    0.214E-03
DAV:   2    -0.383637395035E+02    0.65491E-07   -0.40742E-07 11860   0.874E-03    0.833E-04
DAV:   3    -0.383637394785E+02    0.25024E-07   -0.32132E-08  7904   0.175E-03    0.406E-04
DAV:   4    -0.383637394626E+02    0.15956E-07   -0.47802E-09  4996   0.975E-04    0.831E-05
DAV:   5    -0.383637394595E+02    0.30218E-08   -0.29865E-09  4956   0.668E-04
 251 F= -.38363739E+02 E0= -.38353442E+02  d E =-.981759E-07
 curvature:  -0.14 expect dE=-0.713E-07 dE for cont linesearch -0.424E-07
 trial: gam= 0.18359 g(F)=  0.346E-06 g(S)=  0.158E-06 ort = 0.335E-06 (trialstep = 0.594E-01)
 search vector abs. value=  0.640E-06
 reached required accuracy - stopping structural energy minimisation
 writing wavefunctions
Fri Dec 24 02:49:14 CST 2021
