Thu Dec 23 22:26:09 CST 2021
 running on   48 total cores
 distrk:  each k-point on   48 cores,    1 groups
 distr:  one band on   24 cores,    2 groups
 using from now: INCAR     
 vasp.5.3.5 31Mar14 (build Jan 11 2016 19:50:55) complex                        
  
 POSCAR found type information on POSCAR  Ga N  O  Zn
 POSCAR found :  4 types and       8 ions
 scaLAPACK will be used

 ----------------------------------------------------------------------------- 
|                                                                             |
|           W    W    AA    RRRRR   N    N  II  N    N   GGGG   !!!           |
|           W    W   A  A   R    R  NN   N  II  NN   N  G    G  !!!           |
|           W    W  A    A  R    R  N N  N  II  N N  N  G       !!!           |
|           W WW W  AAAAAA  RRRRR   N  N N  II  N  N N  G  GGG   !            |
|           WW  WW  A    A  R   R   N   NN  II  N   NN  G    G                |
|           W    W  A    A  R    R  N    N  II  N    N   GGGG   !!!           |
|                                                                             |
|      For optimal performance we recommend to set                            |
|        NCORE= 4 - approx SQRT( number of cores)                             |
|      NCORE specifies how many cores store one orbital (NPAR=cpu/NCORE).     |
|      This setting can  greatly improve the performance of VASP for DFT.     |
|      The default, NPAR=number of cores might be grossly inefficient         |
|      on modern multi-core architectures or massively parallel machines.     |
|      Do your own testing !!!!                                               |
|      Unfortunately you need to use the default for GW and RPA calculations. |
|      (for HF NCORE is supported but not extensively tested yet)             |
|                                                                             |
 ----------------------------------------------------------------------------- 

 LDA part: xc-table for Pade appr. of Perdew
 POSCAR, INCAR and KPOINTS ok, starting setup
 WARNING: small aliasing (wrap around) errors must be expected
 FFT: planning ...
 WAVECAR not read
 entering main loop
       N       E                     dE             d eps       ncg     rms          rms(c)
DAV:   1     0.898953193609E+03    0.89895E+03   -0.42186E+04 10320   0.338E+03
DAV:   2     0.144643684518E+03   -0.75431E+03   -0.72559E+03  9936   0.791E+02
DAV:   3    -0.254730132043E+02   -0.17012E+03   -0.16422E+03 11444   0.266E+02
DAV:   4    -0.404497302667E+02   -0.14977E+02   -0.14764E+02 11424   0.789E+01
DAV:   5    -0.409700678978E+02   -0.52034E+00   -0.51787E+00 12964   0.147E+01    0.173E+01
DAV:   6    -0.355077101077E+02    0.54624E+01   -0.40900E+01 18496   0.948E+01    0.107E+01
DAV:   7    -0.347150000481E+02    0.79271E+00   -0.11461E+01 13376   0.256E+01    0.623E+00
DAV:   8    -0.346723262879E+02    0.42674E-01   -0.15310E+00 11860   0.140E+01    0.339E+00
DAV:   9    -0.346642563345E+02    0.80700E-02   -0.38708E-01 12436   0.664E+00    0.930E-01
DAV:  10    -0.346545276197E+02    0.97287E-02   -0.80620E-02 12392   0.378E+00    0.429E-01
DAV:  11    -0.346543593087E+02    0.16831E-03   -0.28781E-02 12416   0.132E+00    0.235E-01
DAV:  12    -0.346544724407E+02   -0.11313E-03   -0.42344E-03 11980   0.934E-01    0.113E-01
DAV:  13    -0.346546021668E+02   -0.12973E-03   -0.95737E-04 11932   0.380E-01    0.258E-02
DAV:  14    -0.346546197037E+02   -0.17537E-04   -0.14160E-04 11600   0.106E-01    0.164E-02
DAV:  15    -0.346546261794E+02   -0.64757E-05   -0.21812E-05 11392   0.566E-02    0.509E-03
DAV:  16    -0.346546279389E+02   -0.17595E-05   -0.53305E-06 11428   0.316E-02    0.242E-03
DAV:  17    -0.346546281274E+02   -0.18847E-06   -0.11901E-06 11608   0.881E-03    0.122E-03
DAV:  18    -0.346546281239E+02    0.35220E-08   -0.15279E-07 11544   0.337E-03    0.733E-04
DAV:  19    -0.346546281173E+02    0.66366E-08   -0.54985E-08 10620   0.234E-03
   1 F= -.34654628E+02 E0= -.34635929E+02  d E =-.346546E+02
 curvature:   0.00 expect dE= 0.000E+00 dE for cont linesearch  0.000E+00
 trial: gam= 0.00000 g(F)=  0.424E-01 g(S)=  0.230E+00 ort = 0.000E+00 (trialstep = 0.100E+01)
 search vector abs. value=  0.273E+00
 bond charge predicted
       N       E                     dE             d eps       ncg     rms          rms(c)
DAV:   1    -0.362313215588E+02   -0.15767E+01   -0.37772E+01 11752   0.761E+01    0.911E+00
DAV:   2    -0.352028955388E+02    0.10284E+01   -0.81919E+00 13288   0.352E+01    0.441E+00
DAV:   3    -0.349942154302E+02    0.20868E+00   -0.14127E+00 14372   0.107E+01    0.297E+00
DAV:   4    -0.348684949836E+02    0.12572E+00   -0.56331E-01 13880   0.623E+00    0.142E+00
DAV:   5    -0.348307878577E+02    0.37707E-01   -0.10262E-01 13012   0.344E+00    0.269E-01
DAV:   6    -0.348307837919E+02    0.40658E-05   -0.21004E-02 11268   0.158E+00    0.124E-01
DAV:   7    -0.348307406840E+02    0.43108E-04   -0.30524E-03 13052   0.539E-01    0.732E-02
DAV:   8    -0.348307445702E+02   -0.38862E-05   -0.53378E-04 11964   0.333E-01    0.433E-02
DAV:   9    -0.348307518751E+02   -0.73049E-05   -0.12155E-04 10728   0.138E-01    0.211E-02
DAV:  10    -0.348307549348E+02   -0.30597E-05   -0.26420E-05 13944   0.552E-02    0.629E-03
DAV:  11    -0.348307556323E+02   -0.69748E-06   -0.50374E-06 11112   0.307E-02    0.278E-03
DAV:  12    -0.348307557116E+02   -0.79339E-07   -0.10498E-06 12656   0.132E-02    0.103E-03
DAV:  13    -0.348307557656E+02   -0.54023E-07   -0.17611E-07 11084   0.418E-03    0.410E-04
DAV:  14    -0.348307557760E+02   -0.10391E-07   -0.28486E-08  8904   0.204E-03    0.237E-04
DAV:  15    -0.348307557828E+02   -0.67471E-08   -0.10008E-08  6168   0.917E-04
   2 F= -.34830756E+02 E0= -.34807704E+02  d E =-.176128E+00
 trial-energy change:   -0.176128  1 .order   -0.180173   -0.272582   -0.087764
 step:   1.6013(harm=  1.4749)  dis= 0.04059  next Energy=   -34.856263 (dE=-0.202E+00)
 bond charge predicted
       N       E                     dE             d eps       ncg     rms          rms(c)
DAV:   1    -0.353446145201E+02   -0.51386E+00   -0.13021E+01 11984   0.430E+01    0.537E+00
DAV:   2    -0.349824301417E+02    0.36218E+00   -0.28452E+00 13192   0.213E+01    0.262E+00
DAV:   3    -0.349193945354E+02    0.63036E-01   -0.62492E-01 15296   0.654E+00    0.186E+00
DAV:   4    -0.348662761972E+02    0.53118E-01   -0.21271E-01 13944   0.369E+00    0.823E-01
DAV:   5    -0.348537386986E+02    0.12537E-01   -0.36356E-02 12072   0.189E+00    0.208E-01
DAV:   6    -0.348533849057E+02    0.35379E-03   -0.71795E-03 12136   0.884E-01    0.799E-02
DAV:   7    -0.348533690612E+02    0.15844E-04   -0.13725E-03 11068   0.320E-01    0.435E-02
DAV:   8    -0.348533743562E+02   -0.52949E-05   -0.21482E-04 12088   0.209E-01    0.266E-02
DAV:   9    -0.348533771664E+02   -0.28102E-05   -0.44635E-05 10840   0.971E-02    0.140E-02
DAV:  10    -0.348533786544E+02   -0.14880E-05   -0.10261E-05 12720   0.363E-02    0.406E-03
DAV:  11    -0.348533789438E+02   -0.28941E-06   -0.29691E-06 11252   0.179E-02    0.178E-03
DAV:  12    -0.348533789947E+02   -0.50893E-07   -0.42041E-07 11564   0.784E-03    0.917E-04
DAV:  13    -0.348533790286E+02   -0.33826E-07   -0.57356E-08  9828   0.350E-03    0.269E-04
DAV:  14    -0.348533790370E+02   -0.84037E-08   -0.11664E-08  6176   0.113E-03
   3 F= -.34853379E+02 E0= -.34830326E+02  d E =-.198751E+00
 curvature:  -0.69 expect dE=-0.181E+00 dE for cont linesearch -0.338E-03
 trial: gam= 1.01296 g(F)=  0.116E+00 g(S)=  0.149E+00 ort =-0.116E-01 (trialstep = 0.586E+00)
 search vector abs. value=  0.521E+00
 bond charge predicted
       N       E                     dE             d eps       ncg     rms          rms(c)
DAV:   1    -0.350910142877E+02   -0.23764E+00   -0.25002E+01 10320   0.288E+01    0.317E+00
DAV:   2    -0.350451575968E+02    0.45857E-01   -0.95659E-01 12964   0.101E+01    0.198E+00
DAV:   3    -0.350032093287E+02    0.41948E-01   -0.19334E-01 13848   0.495E+00    0.121E+00
DAV:   4    -0.349751798596E+02    0.28029E-01   -0.84614E-02 14072   0.282E+00    0.205E-01
DAV:   5    -0.349762734182E+02   -0.10936E-02   -0.17504E-02 10920   0.156E+00    0.124E-01
DAV:   6    -0.349764063210E+02   -0.13290E-03   -0.25567E-03 12700   0.451E-01    0.901E-02
DAV:   7    -0.349763704447E+02    0.35876E-04   -0.36600E-04 13456   0.344E-01    0.342E-02
DAV:   8    -0.349763688484E+02    0.15963E-05   -0.11340E-04 11688   0.121E-01    0.144E-02
DAV:   9    -0.349763668702E+02    0.19782E-05   -0.28277E-05 14516   0.682E-02    0.685E-03
DAV:  10    -0.349763670443E+02   -0.17406E-06   -0.65192E-06 13280   0.275E-02    0.465E-03
DAV:  11    -0.349763670377E+02    0.65970E-08   -0.25259E-06 11776   0.217E-02    0.122E-03
DAV:  12    -0.349763670384E+02   -0.71395E-09   -0.30122E-07 11552   0.433E-03    0.686E-04
DAV:  13    -0.349763670416E+02   -0.32451E-08   -0.40933E-08  9760   0.179E-03
   4 F= -.34976367E+02 E0= -.34956081E+02  d E =-.122988E+00
 trial-energy change:   -0.122988  1 .order   -0.121272   -0.148234   -0.094310
 step:   1.3061(harm=  1.6120)  dis= 0.08354  next Energy=   -35.037406 (dE=-0.184E+00)
 bond charge predicted
       N       E                     dE             d eps       ncg     rms          rms(c)
DAV:   1    -0.352042405082E+02   -0.22787E+00   -0.37496E+01 10316   0.354E+01    0.385E+00
DAV:   2    -0.351386448366E+02    0.65596E-01   -0.13946E+00 12224   0.121E+01    0.237E+00
DAV:   3    -0.350615569724E+02    0.77088E-01   -0.23721E-01 13792   0.668E+00    0.112E+00
DAV:   4    -0.350412889385E+02    0.20268E-01   -0.12170E-01 13064   0.344E+00    0.274E-01
DAV:   5    -0.350416989350E+02   -0.41000E-03   -0.21113E-02 10992   0.174E+00    0.140E-01
DAV:   6    -0.350419174004E+02   -0.21847E-03   -0.38873E-03 12556   0.514E-01    0.993E-02
DAV:   7    -0.350418696427E+02    0.47758E-04   -0.36947E-04 14664   0.281E-01    0.348E-02
DAV:   8    -0.350418715776E+02   -0.19350E-05   -0.11857E-04 11200   0.120E-01    0.132E-02
DAV:   9    -0.350418719743E+02   -0.39670E-06   -0.29044E-05 12580   0.398E-02    0.824E-03
DAV:  10    -0.350418716417E+02    0.33261E-06   -0.35008E-06 12960   0.193E-02    0.432E-03
DAV:  11    -0.350418717207E+02   -0.79045E-07   -0.19364E-06 11916   0.123E-02    0.135E-03
DAV:  12    -0.350418716994E+02    0.21324E-07   -0.22045E-07 12512   0.467E-03    0.539E-04
DAV:  13    -0.350418717016E+02   -0.21741E-08   -0.47316E-08 10424   0.204E-03
   5 F= -.35041872E+02 E0= -.35021900E+02  d E =-.188493E+00
 curvature:  -1.51 expect dE=-0.250E+00 dE for cont linesearch -0.586E-03
 trial: gam= 0.47563 g(F)=  0.137E+00 g(S)=  0.284E-01 ort = 0.142E-01 (trialstep = 0.730E+00)
 search vector abs. value=  0.297E+00
 bond charge predicted
       N       E                     dE             d eps       ncg     rms          rms(c)
DAV:   1    -0.352483708164E+02   -0.20650E+00   -0.25741E+01  9940   0.318E+01    0.345E+00
DAV:   2    -0.351901732710E+02    0.58198E-01   -0.16266E+00 11896   0.147E+01    0.197E+00
DAV:   3    -0.351555327746E+02    0.34640E-01   -0.18961E-01 12904   0.536E+00    0.110E+00
DAV:   4    -0.351376525232E+02    0.17880E-01   -0.72028E-02 12900   0.238E+00    0.452E-01
DAV:   5    -0.351350088570E+02    0.26437E-02   -0.21241E-02 11900   0.137E+00    0.103E-01
DAV:   6    -0.351352772234E+02   -0.26837E-03   -0.45088E-03 10900   0.782E-01    0.749E-02
DAV:   7    -0.351352689630E+02    0.82604E-05   -0.50023E-04 12404   0.302E-01    0.417E-02
DAV:   8    -0.351352690272E+02   -0.64249E-07   -0.13513E-04 11572   0.125E-01    0.164E-02
DAV:   9    -0.351352695121E+02   -0.48483E-06   -0.30049E-05 12704   0.738E-02    0.674E-03
DAV:  10    -0.351352697231E+02   -0.21100E-06   -0.67621E-06 12008   0.284E-02    0.354E-03
DAV:  11    -0.351352696665E+02    0.56533E-07   -0.12315E-06 11924   0.124E-02    0.121E-03
DAV:  12    -0.351352696333E+02    0.33187E-07   -0.28493E-07 11844   0.526E-03    0.536E-04
DAV:  13    -0.351352696264E+02    0.69567E-08   -0.54270E-08 11016   0.217E-03
   6 F= -.35135270E+02 E0= -.35115063E+02  d E =-.933979E-01
 trial-energy change:   -0.093398  1 .order   -0.092822   -0.125857   -0.059787
 step:   1.3336(harm=  1.3912)  dis= 0.04270  next Energy=   -35.160286 (dE=-0.118E+00)
 bond charge predicted
       N       E                     dE             d eps       ncg     rms          rms(c)
DAV:   1    -0.352416812617E+02   -0.10641E+00   -0.17611E+01  9920   0.267E+01    0.290E+00
DAV:   2    -0.351995411806E+02    0.42140E-01   -0.11607E+00 11828   0.127E+01    0.167E+00
DAV:   3    -0.351751174674E+02    0.24424E-01   -0.13316E-01 13148   0.464E+00    0.918E-01
DAV:   4    -0.351621663472E+02    0.12951E-01   -0.45479E-02 12964   0.213E+00    0.364E-01
DAV:   5    -0.351606204029E+02    0.15459E-02   -0.14513E-02 11724   0.120E+00    0.870E-02
DAV:   6    -0.351607991377E+02   -0.17873E-03   -0.30217E-03 11184   0.655E-01    0.608E-02
DAV:   7    -0.351607935942E+02    0.55436E-05   -0.35823E-04 12196   0.264E-01    0.344E-02
DAV:   8    -0.351607941516E+02   -0.55749E-06   -0.97818E-05 11904   0.109E-01    0.133E-02
DAV:   9    -0.351607946514E+02   -0.49973E-06   -0.22354E-05 12784   0.623E-02    0.583E-03
DAV:  10    -0.351607947685E+02   -0.11710E-06   -0.46309E-06 11824   0.246E-02    0.291E-03
DAV:  11    -0.351607947215E+02    0.46924E-07   -0.89107E-07 12112   0.997E-03    0.900E-04
DAV:  12    -0.351607947009E+02    0.20693E-07   -0.18196E-07 11724   0.442E-03    0.401E-04
DAV:  13    -0.351607946962E+02    0.46316E-08   -0.32062E-08  8364   0.188E-03
   7 F= -.35160795E+02 E0= -.35140668E+02  d E =-.118923E+00
 curvature:  -1.19 expect dE=-0.902E-01 dE for cont linesearch -0.611E-05
 trial: gam= 0.49453 g(F)=  0.696E-01 g(S)=  0.624E-02 ort = 0.123E-02 (trialstep = 0.851E+00)
 search vector abs. value=  0.150E+00
 bond charge predicted
       N       E                     dE             d eps       ncg     rms          rms(c)
DAV:   1    -0.352065736676E+02   -0.45779E-01   -0.19919E+01  9944   0.256E+01    0.185E+00
DAV:   2    -0.352290044316E+02   -0.22431E-01   -0.78351E-01 11324   0.847E+00    0.104E+00
DAV:   3    -0.352202534635E+02    0.87510E-02   -0.69851E-02 12868   0.295E+00    0.576E-01
DAV:   4    -0.352151248271E+02    0.51286E-02   -0.17167E-02 13168   0.146E+00    0.202E-01
DAV:   5    -0.352147579499E+02    0.36688E-03   -0.62231E-03 11636   0.718E-01    0.688E-02
DAV:   6    -0.352148159911E+02   -0.58041E-04   -0.11700E-03 11196   0.412E-01    0.514E-02
DAV:   7    -0.352148074671E+02    0.85239E-05   -0.11874E-04 12104   0.156E-01    0.332E-02
DAV:   8    -0.352148036642E+02    0.38029E-05   -0.60623E-05 11864   0.760E-02    0.975E-03
DAV:   9    -0.352148032693E+02    0.39496E-06   -0.16750E-05 11132   0.420E-02    0.539E-03
DAV:  10    -0.352148032014E+02    0.67820E-07   -0.33118E-06 11260   0.129E-02    0.290E-03
DAV:  11    -0.352148031096E+02    0.91879E-07   -0.63453E-07 12448   0.794E-03    0.973E-04
DAV:  12    -0.352148030854E+02    0.24203E-07   -0.13819E-07 11640   0.391E-03    0.411E-04
DAV:  13    -0.352148030743E+02    0.11049E-07   -0.18662E-08  6624   0.105E-03    0.146E-04
DAV:  14    -0.352148030711E+02    0.31796E-08   -0.48436E-09  5976   0.725E-04
   8 F= -.35214803E+02 E0= -.35194668E+02  d E =-.540084E-01
 trial-energy change:   -0.054008  1 .order   -0.053941   -0.065045   -0.042837
 step:   2.4925(harm=  2.4925)  dis= 0.06930  next Energy=   -35.256049 (dE=-0.953E-01)
 bond charge predicted
       N       E                     dE             d eps       ncg     rms          rms(c)
DAV:   1    -0.352144418570E+02    0.36122E-03   -0.74155E+01  9948   0.492E+01    0.372E+00
DAV:   2    -0.353100734963E+02   -0.95632E-01   -0.31366E+00 11304   0.156E+01    0.210E+00
DAV:   3    -0.352724263509E+02    0.37647E-01   -0.25336E-01 13608   0.560E+00    0.118E+00
DAV:   4    -0.352515443472E+02    0.20882E-01   -0.63802E-02 12616   0.283E+00    0.433E-01
DAV:   5    -0.352498970427E+02    0.16473E-02   -0.24131E-02 11096   0.156E+00    0.144E-01
DAV:   6    -0.352501241620E+02   -0.22712E-03   -0.48372E-03 11304   0.789E-01    0.102E-01
DAV:   7    -0.352500969692E+02    0.27193E-04   -0.52861E-04 12076   0.352E-01    0.682E-02
DAV:   8    -0.352500786082E+02    0.18361E-04   -0.23043E-04 12140   0.160E-01    0.206E-02
DAV:   9    -0.352500788133E+02   -0.20509E-06   -0.69298E-05 12336   0.920E-02    0.101E-02
DAV:  10    -0.352500787382E+02    0.75125E-07   -0.12587E-05 10744   0.288E-02    0.542E-03
DAV:  11    -0.352500785605E+02    0.17764E-06   -0.24456E-06 13604   0.169E-02    0.168E-03
DAV:  12    -0.352500785524E+02    0.81159E-08   -0.46690E-07 11928   0.995E-03    0.568E-04
DAV:  13    -0.352500785362E+02    0.16173E-07   -0.87931E-08 11812   0.221E-03    0.291E-04
DAV:  14    -0.352500785348E+02    0.14802E-08   -0.68038E-09  6084   0.852E-04
   9 F= -.35250079E+02 E0= -.35230933E+02  d E =-.892838E-01
 curvature:  -2.44 expect dE=-0.286E+00 dE for cont linesearch -0.122E-02
 trial: gam= 1.41900 g(F)=  0.618E-01 g(S)=  0.556E-01 ort =-0.866E-02 (trialstep = 0.448E+00)
 search vector abs. value=  0.394E+00
 bond charge predicted
       N       E                     dE             d eps       ncg     rms          rms(c)
DAV:   1    -0.353127558369E+02   -0.62677E-01   -0.15344E+01 10780   0.264E+01    0.215E+00
DAV:   2    -0.353048731262E+02    0.78827E-02   -0.86031E-01 11088   0.115E+01    0.111E+00
DAV:   3    -0.352945199562E+02    0.10353E-01   -0.71731E-02 13240   0.389E+00    0.567E-01
DAV:   4    -0.352888403693E+02    0.56796E-02   -0.17784E-02 12064   0.138E+00    0.201E-01
DAV:   5    -0.352884302709E+02    0.41010E-03   -0.52384E-03 11344   0.766E-01    0.654E-02
DAV:   6    -0.352884775221E+02   -0.47251E-04   -0.10450E-03 11256   0.400E-01    0.416E-02
DAV:   7    -0.352884760248E+02    0.14973E-05   -0.12118E-04 12752   0.170E-01    0.262E-02
DAV:   8    -0.352884769353E+02   -0.91052E-06   -0.43734E-05 11996   0.689E-02    0.702E-03
DAV:   9    -0.352884775466E+02   -0.61131E-06   -0.95066E-06 12080   0.300E-02    0.349E-03
DAV:  10    -0.352884776975E+02   -0.15087E-06   -0.16014E-06 11320   0.140E-02    0.180E-03
DAV:  11    -0.352884778546E+02   -0.15711E-06   -0.34427E-07 12476   0.660E-03    0.587E-04
DAV:  12    -0.352884778845E+02   -0.29936E-07   -0.44779E-08  9288   0.277E-03    0.262E-04
DAV:  13    -0.352884778939E+02   -0.93742E-08   -0.84262E-09  6188   0.113E-03
  10 F= -.35288478E+02 E0= -.35270471E+02  d E =-.383994E-01
 trial-energy change:   -0.038399  1 .order   -0.038425   -0.047052   -0.029797
 step:   1.2210(harm=  1.2210)  dis= 0.05384  next Energy=   -35.314231 (dE=-0.642E-01)
 bond charge predicted
       N       E                     dE             d eps       ncg     rms          rms(c)
DAV:   1    -0.353653608780E+02   -0.76883E-01   -0.45971E+01 10524   0.467E+01    0.367E+00
DAV:   2    -0.353591141477E+02    0.62467E-02   -0.26242E+00 11092   0.199E+01    0.189E+00
DAV:   3    -0.353309649726E+02    0.28149E-01   -0.21984E-01 13304   0.636E+00    0.964E-01
DAV:   4    -0.353143848213E+02    0.16580E-01   -0.54315E-02 12112   0.242E+00    0.336E-01
DAV:   5    -0.353133001603E+02    0.10847E-02   -0.15283E-02 11516   0.128E+00    0.115E-01
DAV:   6    -0.353134272012E+02   -0.12704E-03   -0.30119E-03 11252   0.643E-01    0.754E-02
DAV:   7    -0.353134207183E+02    0.64829E-05   -0.35164E-04 12808   0.289E-01    0.471E-02
DAV:   8    -0.353134206852E+02    0.33145E-07   -0.11948E-04 12176   0.134E-01    0.124E-02
DAV:   9    -0.353134226944E+02   -0.20092E-05   -0.28753E-05 12492   0.558E-02    0.572E-03
DAV:  10    -0.353134229823E+02   -0.28792E-06   -0.51405E-06 11484   0.246E-02    0.328E-03
DAV:  11    -0.353134232263E+02   -0.24405E-06   -0.11015E-06 12376   0.108E-02    0.121E-03
DAV:  12    -0.353134233073E+02   -0.81001E-07   -0.13835E-07 11136   0.422E-03    0.489E-04
DAV:  13    -0.353134233245E+02   -0.17191E-07   -0.24071E-08  7688   0.183E-03    0.271E-04
DAV:  14    -0.353134233370E+02   -0.12446E-07   -0.84251E-09  6136   0.116E-03    0.964E-05
DAV:  15    -0.353134233376E+02   -0.63437E-09   -0.25828E-09  5992   0.641E-04
  11 F= -.35313423E+02 E0= -.35297829E+02  d E =-.633448E-01
 curvature:  -2.29 expect dE=-0.158E+00 dE for cont linesearch -0.269E-04
 trial: gam= 0.37586 g(F)=  0.570E-01 g(S)=  0.118E-01 ort =-0.215E-02 (trialstep = 0.602E+00)
 search vector abs. value=  0.123E+00
 bond charge predicted
       N       E                     dE             d eps       ncg     rms          rms(c)
DAV:   1    -0.353423679023E+02   -0.28945E-01   -0.89002E+00  9864   0.168E+01    0.111E+00
DAV:   2    -0.353532724546E+02   -0.10905E-01   -0.30096E-01 11736   0.465E+00    0.641E-01
DAV:   3    -0.353476772909E+02    0.55952E-02   -0.19171E-02 12616   0.215E+00    0.335E-01
DAV:   4    -0.353458091580E+02    0.18681E-02   -0.75368E-03 12512   0.106E+00    0.922E-02
DAV:   5    -0.353458703042E+02   -0.61146E-04   -0.23610E-03 10988   0.481E-01    0.466E-02
DAV:   6    -0.353458788682E+02   -0.85640E-05   -0.35167E-04 12216   0.241E-01    0.309E-02
DAV:   7    -0.353458732603E+02    0.56079E-05   -0.55366E-05 13284   0.136E-01    0.151E-02
DAV:   8    -0.353458745523E+02   -0.12920E-05   -0.21779E-05 11928   0.491E-02    0.447E-03
DAV:   9    -0.353458747458E+02   -0.19353E-06   -0.44761E-06 11800   0.157E-02    0.295E-03
DAV:  10    -0.353458747704E+02   -0.24607E-07   -0.51306E-07 11828   0.687E-03    0.111E-03
DAV:  11    -0.353458748011E+02   -0.30719E-07   -0.17816E-07 11640   0.479E-03    0.347E-04
DAV:  12    -0.353458748015E+02   -0.41473E-09   -0.15140E-08  6436   0.183E-03
  12 F= -.35345875E+02 E0= -.35331234E+02  d E =-.324515E-01
 trial-energy change:   -0.032451  1 .order   -0.032361   -0.040958   -0.023764
 step:   1.3789(harm=  1.4351)  dis= 0.04001  next Energy=   -35.361383 (dE=-0.480E-01)
 bond charge predicted
       N       E                     dE             d eps       ncg     rms          rms(c)
DAV:   1    -0.353544735247E+02   -0.85987E-02   -0.14808E+01  9860   0.217E+01    0.142E+00
DAV:   2    -0.353736603233E+02   -0.19187E-01   -0.50868E-01 11856   0.599E+00    0.826E-01
DAV:   3    -0.353643037731E+02    0.93566E-02   -0.31116E-02 12620   0.275E+00    0.434E-01
DAV:   4    -0.353611477471E+02    0.31560E-02   -0.12480E-02 12724   0.137E+00    0.119E-01
DAV:   5    -0.353612452417E+02   -0.97495E-04   -0.39317E-03 11192   0.626E-01    0.613E-02
DAV:   6    -0.353612567224E+02   -0.11481E-04   -0.56750E-04 12000   0.314E-01    0.400E-02
DAV:   7    -0.353612472692E+02    0.94533E-05   -0.95655E-05 13024   0.175E-01    0.198E-02
DAV:   8    -0.353612492828E+02   -0.20136E-05   -0.38362E-05 12388   0.675E-02    0.581E-03
DAV:   9    -0.353612496833E+02   -0.40057E-06   -0.77253E-06 11760   0.199E-02    0.384E-03
DAV:  10    -0.353612496904E+02   -0.70968E-08   -0.90371E-07 11688   0.924E-03    0.143E-03
DAV:  11    -0.353612497508E+02   -0.60379E-07   -0.28868E-07 11044   0.585E-03    0.432E-04
DAV:  12    -0.353612497552E+02   -0.44215E-08   -0.23134E-08  7572   0.168E-03
  13 F= -.35361250E+02 E0= -.35347516E+02  d E =-.478264E-01
 curvature:  -1.29 expect dE=-0.829E-01 dE for cont linesearch -0.605E-06
 trial: gam= 0.94605 g(F)=  0.557E-01 g(S)=  0.845E-02 ort =-0.240E-03 (trialstep = 0.536E+00)
 search vector abs. value=  0.174E+00
 bond charge predicted
       N       E                     dE             d eps       ncg     rms          rms(c)
DAV:   1    -0.354072347008E+02   -0.45985E-01   -0.95981E+00 10080   0.201E+01    0.172E+00
DAV:   2    -0.354027825830E+02    0.44521E-02   -0.53333E-01 11376   0.872E+00    0.843E-01
DAV:   3    -0.353964293956E+02    0.63532E-02   -0.47106E-02 14200   0.289E+00    0.464E-01
DAV:   4    -0.353926848076E+02    0.37446E-02   -0.10628E-02 12564   0.121E+00    0.176E-01
DAV:   5    -0.353923057077E+02    0.37910E-03   -0.35940E-03 11812   0.671E-01    0.455E-02
DAV:   6    -0.353923543191E+02   -0.48611E-04   -0.78981E-04 11520   0.327E-01    0.326E-02
DAV:   7    -0.353923533329E+02    0.98619E-06   -0.78975E-05 12360   0.149E-01    0.191E-02
DAV:   8    -0.353923544682E+02   -0.11353E-05   -0.23897E-05 12584   0.593E-02    0.717E-03
DAV:   9    -0.353923550014E+02   -0.53318E-06   -0.57382E-06 11948   0.264E-02    0.279E-03
DAV:  10    -0.353923551687E+02   -0.16731E-06   -0.14893E-06 12360   0.136E-02    0.177E-03
DAV:  11    -0.353923552323E+02   -0.63631E-07   -0.28958E-07 12960   0.591E-03    0.686E-04
DAV:  12    -0.353923552496E+02   -0.17343E-07   -0.67337E-08 10772   0.237E-03    0.388E-04
DAV:  13    -0.353923552609E+02   -0.11216E-07   -0.10612E-08  6280   0.161E-03    0.156E-04
DAV:  14    -0.353923552647E+02   -0.37944E-08   -0.55917E-09  6120   0.871E-04
  14 F= -.35392355E+02 E0= -.35378758E+02  d E =-.311055E-01
 ZBRENT: can't locate minimum, use default step
 trial-energy change:   -0.031106  1 .order   -0.031123   -0.034283   -0.027963
 step:   2.1437(harm=  2.9070)  dis= 0.07361  next Energy=   -35.454229 (dE=-0.930E-01)
 bond charge predicted
       N       E                     dE             d eps       ncg     rms          rms(c)
DAV:   1    -0.355044339413E+02   -0.11208E+00   -0.88651E+01 10100   0.648E+01    0.512E+00
DAV:   2    -0.355334857250E+02   -0.29052E-01   -0.53289E+00 11336   0.271E+01    0.248E+00
DAV:   3    -0.354854392297E+02    0.48046E-01   -0.43811E-01 13976   0.806E+00    0.135E+00
DAV:   4    -0.354528717070E+02    0.32568E-01   -0.93898E-02 12180   0.393E+00    0.498E-01
DAV:   5    -0.354501269788E+02    0.27447E-02   -0.29562E-02 12344   0.205E+00    0.141E-01
DAV:   6    -0.354505620517E+02   -0.43507E-03   -0.70390E-03 10952   0.100E+00    0.105E-01
DAV:   7    -0.354505489027E+02    0.13149E-04   -0.76798E-04 12340   0.524E-01    0.640E-02
DAV:   8    -0.354505529022E+02   -0.39995E-05   -0.24207E-04 12216   0.188E-01    0.182E-02
DAV:   9    -0.354505578445E+02   -0.49423E-05   -0.56757E-05 13400   0.703E-02    0.828E-03
DAV:  10    -0.354505582414E+02   -0.39688E-06   -0.90954E-06 11628   0.411E-02    0.526E-03
DAV:  11    -0.354505587397E+02   -0.49830E-06   -0.24071E-06 14480   0.258E-02    0.159E-03
DAV:  12    -0.354505588196E+02   -0.79942E-07   -0.37142E-07 12208   0.988E-03    0.617E-04
DAV:  13    -0.354505588375E+02   -0.17806E-07   -0.86787E-08 11580   0.239E-03    0.424E-04
DAV:  14    -0.354505588517E+02   -0.14263E-07   -0.15476E-08  6472   0.137E-03    0.188E-04
DAV:  15    -0.354505588568E+02   -0.50859E-08   -0.37501E-09  6228   0.978E-04
  15 F= -.35450559E+02 E0= -.35437600E+02  d E =-.893091E-01
 curvature:  -3.54 expect dE=-0.203E+00 dE for cont linesearch -0.871E-02
 ZBRENT: increasing intervall
 opt :   5.3593  next Energy=   -35.415806 (dE=-0.546E-01)
 bond charge predicted
       N       E                     dE             d eps       ncg     rms          rms(c)
DAV:   1    -0.348790456514E+02    0.57151E+00   -0.37975E+02 10076   0.148E+02    0.100E+01
DAV:   2    -0.357154547782E+02   -0.83641E+00   -0.26700E+01 11388   0.569E+01    0.488E+00
DAV:   3    -0.355572438395E+02    0.15821E+00   -0.19758E+00 14168   0.167E+01    0.257E+00
DAV:   4    -0.354362598424E+02    0.12098E+00   -0.34893E-01 12364   0.667E+00    0.791E-01
DAV:   5    -0.354329556843E+02    0.33042E-02   -0.88265E-02 13172   0.307E+00    0.309E-01
DAV:   6    -0.354329786446E+02   -0.22960E-04   -0.19516E-02 11872   0.194E+00    0.171E-01
DAV:   7    -0.354329726004E+02    0.60442E-05   -0.30071E-03 12712   0.844E-01    0.101E-01
DAV:   8    -0.354329513268E+02    0.21274E-04   -0.82316E-04 12468   0.387E-01    0.315E-02
DAV:   9    -0.354329703891E+02   -0.19062E-04   -0.25213E-04 12364   0.148E-01    0.176E-02
DAV:  10    -0.354329697951E+02    0.59409E-06   -0.36559E-05 11592   0.745E-02    0.109E-02
DAV:  11    -0.354329712545E+02   -0.14594E-05   -0.13105E-05 12128   0.356E-02    0.313E-03
DAV:  12    -0.354329715693E+02   -0.31483E-06   -0.22735E-06 11128   0.210E-02    0.118E-03
DAV:  13    -0.354329716528E+02   -0.83550E-07   -0.38861E-07 12968   0.109E-02    0.739E-04
DAV:  14    -0.354329716937E+02   -0.40896E-07   -0.99861E-08 10876   0.356E-03    0.265E-04
DAV:  15    -0.354329717014E+02   -0.76343E-08   -0.15507E-08  7196   0.165E-03
  16 F= -.35432972E+02 E0= -.35424052E+02  d E =-.717219E-01
 curvature:  14.11 expect dE= 0.485E+01 dE for cont linesearch  0.875E-01
 ZBRENT: bracketing found
 ZBRENT: interpolating
 opt :   3.3870  next Energy=   -35.463417 (dE=-0.102E+00)
 bond charge predicted
       N       E                     dE             d eps       ncg     rms          rms(c)
DAV:   1    -0.356471016379E+02   -0.21413E+00   -0.12698E+02 10328   0.666E+01    0.601E+00
DAV:   2    -0.356001764523E+02    0.46925E-01   -0.63422E+00 11644   0.264E+01    0.293E+00
DAV:   3    -0.355075137252E+02    0.92663E-01   -0.71070E-01 12648   0.141E+01    0.172E+00
DAV:   4    -0.354676029208E+02    0.39911E-01   -0.18711E-01 13680   0.593E+00    0.655E-01
DAV:   5    -0.354630694910E+02    0.45334E-02   -0.51792E-02 11264   0.299E+00    0.217E-01
DAV:   6    -0.354635266960E+02   -0.45720E-03   -0.12916E-02 13200   0.128E+00    0.131E-01
DAV:   7    -0.354634937221E+02    0.32974E-04   -0.14505E-03 12268   0.583E-01    0.761E-02
DAV:   8    -0.354635185311E+02   -0.24809E-04   -0.58056E-04 13380   0.253E-01    0.408E-02
DAV:   9    -0.354635058842E+02    0.12647E-04   -0.14292E-04 13380   0.169E-01    0.156E-02
DAV:  10    -0.354635075150E+02   -0.16308E-05   -0.37522E-05 12172   0.510E-02    0.895E-03
DAV:  11    -0.354635073936E+02    0.12148E-06   -0.43415E-06 12796   0.197E-02    0.185E-03
DAV:  12    -0.354635074303E+02   -0.36767E-07   -0.88237E-07 12168   0.124E-02    0.898E-04
DAV:  13    -0.354635074254E+02    0.49336E-08   -0.14482E-07 11316   0.455E-03    0.508E-04
DAV:  14    -0.354635074206E+02    0.48171E-08   -0.28760E-08  8976   0.244E-03
  17 F= -.35463507E+02 E0= -.35451666E+02  d E =-.102258E+00
 curvature:  -2.07 expect dE=-0.270E+00 dE for cont linesearch -0.124E-04
 trial: gam= 2.29732 g(F)=  0.545E-01 g(S)=  0.757E-01 ort =-0.102E-02 (trialstep = 0.184E+00)
 search vector abs. value=  0.104E+01
 bond charge predicted
       N       E                     dE             d eps       ncg     rms          rms(c)
DAV:   1    -0.354900909342E+02   -0.26584E-01   -0.67732E+00 10080   0.148E+01    0.107E+00
DAV:   2    -0.354925479804E+02   -0.24570E-02   -0.20872E-01 11584   0.406E+00    0.579E-01
DAV:   3    -0.354877667240E+02    0.47813E-02   -0.16235E-02 13724   0.153E+00    0.299E-01
DAV:   4    -0.354862847995E+02    0.14819E-02   -0.49146E-03 11752   0.796E-01    0.726E-02
DAV:   5    -0.354863363777E+02   -0.51578E-04   -0.15268E-03 10864   0.414E-01    0.368E-02
DAV:   6    -0.354863445501E+02   -0.81724E-05   -0.23288E-04 11788   0.201E-01    0.250E-02
DAV:   7    -0.354863428156E+02    0.17345E-05   -0.38143E-05 12664   0.100E-01    0.104E-02
DAV:   8    -0.354863439290E+02   -0.11135E-05   -0.11892E-05 13624   0.428E-02    0.407E-03
DAV:   9    -0.354863441428E+02   -0.21374E-06   -0.21352E-06 10736   0.146E-02    0.228E-03
DAV:  10    -0.354863442232E+02   -0.80461E-07   -0.65532E-07 13900   0.997E-03    0.126E-03
DAV:  11    -0.354863442319E+02   -0.87057E-08   -0.15247E-07 13444   0.624E-03    0.389E-04
DAV:  12    -0.354863442339E+02   -0.19763E-08   -0.35454E-08  9124   0.138E-03
  18 F= -.35486344E+02 E0= -.35475410E+02  d E =-.228368E-01
 ZBRENT: can't locate minimum, use default step
 trial-energy change:   -0.022837  1 .order   -0.022817   -0.023576   -0.022058
 step:   0.7374(harm=  2.8630)  dis= 0.06029  next Energy=   -35.646591 (dE=-0.183E+00)
 bond charge predicted
       N       E                     dE             d eps       ncg     rms          rms(c)
DAV:   1    -0.355436699501E+02   -0.57326E-01   -0.61889E+01 10088   0.458E+01    0.320E+00
DAV:   2    -0.356007093425E+02   -0.57039E-01   -0.21883E+00 11796   0.134E+01    0.175E+00
DAV:   3    -0.355562326807E+02    0.44477E-01   -0.15196E-01 13576   0.474E+00    0.849E-01
DAV:   4    -0.355445409539E+02    0.11692E-01   -0.40648E-02 12348   0.234E+00    0.171E-01
DAV:   5    -0.355452196956E+02   -0.67874E-03   -0.11682E-02 11104   0.103E+00    0.972E-02
DAV:   6    -0.355452226024E+02   -0.29068E-05   -0.11687E-03 12448   0.490E-01    0.644E-02
DAV:   7    -0.355452145322E+02    0.80702E-05   -0.29956E-04 12408   0.337E-01    0.238E-02
DAV:   8    -0.355452177867E+02   -0.32545E-05   -0.97327E-05 14084   0.181E-01    0.102E-02
DAV:   9    -0.355452195645E+02   -0.17779E-05   -0.26003E-05 10776   0.505E-02    0.697E-03
DAV:  10    -0.355452197675E+02   -0.20292E-06   -0.47116E-06 13280   0.280E-02    0.250E-03
DAV:  11    -0.355452199051E+02   -0.13768E-06   -0.90172E-07 12248   0.128E-02    0.735E-04
DAV:  12    -0.355452199196E+02   -0.14441E-07   -0.16778E-07 13540   0.415E-03    0.537E-04
DAV:  13    -0.355452199280E+02   -0.84010E-08   -0.29320E-08  8488   0.192E-03
  19 F= -.35545220E+02 E0= -.35537897E+02  d E =-.817125E-01
 curvature:  -4.32 expect dE=-0.377E+00 dE for cont linesearch -0.344E-01
 ZBRENT: increasing intervall
 opt :   1.8434  next Energy=   -35.614514 (dE=-0.151E+00)
 bond charge predicted
       N       E                     dE             d eps       ncg     rms          rms(c)
DAV:   1    -0.353267204308E+02    0.21850E+00   -0.26017E+02 10500   0.100E+02    0.638E+00
DAV:   2    -0.358116164911E+02   -0.48490E+00   -0.10761E+01 10928   0.308E+01    0.356E+00
DAV:   3    -0.356467778567E+02    0.16484E+00   -0.87293E-01 14564   0.137E+01    0.181E+00
DAV:   4    -0.355975134287E+02    0.49264E-01   -0.20076E-01 11192   0.479E+00    0.486E-01
DAV:   5    -0.355979126266E+02   -0.39920E-03   -0.59697E-02 13532   0.320E+00    0.232E-01
DAV:   6    -0.355982404896E+02   -0.32786E-03   -0.10454E-02 11464   0.146E+00    0.144E-01
DAV:   7    -0.355982607965E+02   -0.20307E-04   -0.20631E-03 13136   0.725E-01    0.839E-02
DAV:   8    -0.355982516431E+02    0.91534E-05   -0.50182E-04 13092   0.427E-01    0.215E-02
DAV:   9    -0.355982641593E+02   -0.12516E-04   -0.16703E-04 11100   0.115E-01    0.167E-02
DAV:  10    -0.355982641838E+02   -0.24574E-07   -0.22085E-05 12024   0.613E-02    0.877E-03
DAV:  11    -0.355982644715E+02   -0.28768E-06   -0.63771E-06 13724   0.580E-02    0.231E-03
DAV:  12    -0.355982646080E+02   -0.13643E-06   -0.15652E-06 11700   0.188E-02    0.107E-03
DAV:  13    -0.355982646383E+02   -0.30336E-07   -0.29034E-07 11788   0.488E-03    0.642E-04
DAV:  14    -0.355982646470E+02   -0.86798E-08   -0.40992E-08 10024   0.349E-03
  20 F= -.35598265E+02 E0= -.35597001E+02  d E =-.134757E+00
 curvature:  -8.69 expect dE=-0.172E+01 dE for cont linesearch -0.169E-04
 trial: gam= 1.45566 g(F)=  0.987E-01 g(S)=  0.991E-01 ort =-0.143E-02 (trialstep = 0.224E+00)
 search vector abs. value=  0.240E+01
 bond charge predicted
       N       E                     dE             d eps       ncg     rms          rms(c)
DAV:   1    -0.357041236921E+02   -0.10586E+00   -0.22925E+01 10104   0.320E+01    0.292E+00
DAV:   2    -0.356667181220E+02    0.37406E-01   -0.14092E+00 11316   0.144E+01    0.135E+00
DAV:   3    -0.356470796143E+02    0.19639E-01   -0.11377E-01 13412   0.452E+00    0.690E-01
DAV:   4    -0.356377030483E+02    0.93766E-02   -0.23074E-02 13848   0.222E+00    0.175E-01
DAV:   5    -0.356379676882E+02   -0.26464E-03   -0.88379E-03 10752   0.102E+00    0.765E-02
DAV:   6    -0.356380114651E+02   -0.43777E-04   -0.10622E-03 12072   0.521E-01    0.541E-02
DAV:   7    -0.356380107898E+02    0.67538E-06   -0.17783E-04 12612   0.253E-01    0.254E-02
DAV:   8    -0.356380148963E+02   -0.41065E-05   -0.59025E-05 14880   0.102E-01    0.818E-03
DAV:   9    -0.356380157840E+02   -0.88770E-06   -0.15181E-05 11196   0.443E-02    0.481E-03
DAV:  10    -0.356380162423E+02   -0.45828E-06   -0.44218E-06 12592   0.170E-02    0.289E-03
DAV:  11    -0.356380162422E+02    0.60936E-10   -0.77883E-07 12728   0.920E-03    0.772E-04
DAV:  12    -0.356380162964E+02   -0.54227E-07   -0.18492E-07 11220   0.279E-03    0.337E-04
DAV:  13    -0.356380162962E+02    0.26512E-09   -0.71490E-09  6280   0.162E-03
  21 F= -.35638016E+02 E0= -.35637106E+02  d E =-.397516E-01
 ZBRENT: can't locate minimum, use default step
 trial-energy change:   -0.039752  1 .order   -0.039870   -0.043818   -0.035922
 step:   0.8958(harm=  1.2429)  dis= 0.10270  next Energy=   -35.719846 (dE=-0.122E+00)
 bond charge predicted
       N       E                     dE             d eps       ncg     rms          rms(c)
DAV:   1    -0.358826879373E+02   -0.24467E+00   -0.21880E+02 10248   0.109E+02    0.859E+00
DAV:   2    -0.359368616450E+02   -0.54174E-01   -0.15204E+01 11248   0.455E+01    0.409E+00
DAV:   3    -0.357860527569E+02    0.15081E+00   -0.12139E+00 14060   0.144E+01    0.207E+00
DAV:   4    -0.357009951885E+02    0.85058E-01   -0.21368E-01 12432   0.669E+00    0.596E-01
DAV:   5    -0.357010858785E+02   -0.90690E-04   -0.71511E-02 11984   0.322E+00    0.220E-01
DAV:   6    -0.357016017940E+02   -0.51592E-03   -0.13144E-02 11524   0.185E+00    0.145E-01
DAV:   7    -0.357016170671E+02   -0.15273E-04   -0.23597E-03 12680   0.926E-01    0.758E-02
DAV:   8    -0.357016193002E+02   -0.22331E-05   -0.70476E-04 12924   0.362E-01    0.213E-02
DAV:   9    -0.357016359910E+02   -0.16691E-04   -0.19357E-04 10924   0.121E-01    0.161E-02
DAV:  10    -0.357016375452E+02   -0.15542E-05   -0.34836E-05 12508   0.870E-02    0.767E-03
DAV:  11    -0.357016387803E+02   -0.12352E-05   -0.65872E-06 12928   0.645E-02    0.234E-03
DAV:  12    -0.357016390599E+02   -0.27958E-06   -0.17835E-06 12132   0.130E-02    0.187E-03
DAV:  13    -0.357016391722E+02   -0.11227E-06   -0.25604E-07 10748   0.668E-03    0.841E-04
DAV:  14    -0.357016391989E+02   -0.26734E-07   -0.60963E-08 10712   0.388E-03    0.304E-04
DAV:  15    -0.357016392001E+02   -0.11391E-08   -0.17275E-08  7232   0.116E-03
  22 F= -.35701639E+02 E0= -.35701340E+02  d E =-.103375E+00
 curvature:  -6.74 expect dE=-0.120E+01 dE for cont linesearch -0.245E-02
 trial: gam= 0.22937 g(F)=  0.126E+00 g(S)=  0.517E-01 ort = 0.296E-01 (trialstep = 0.358E+00)
 search vector abs. value=  0.318E+00
 bond charge predicted
       N       E                     dE             d eps       ncg     rms          rms(c)
DAV:   1    -0.358813717586E+02   -0.17973E+00   -0.81533E+00 11748   0.263E+01    0.290E+00
DAV:   2    -0.357805389464E+02    0.10083E+00   -0.99941E-01 11640   0.136E+01    0.116E+00
DAV:   3    -0.357670536368E+02    0.13485E-01   -0.79451E-02 14264   0.348E+00    0.568E-01
DAV:   4    -0.357605319645E+02    0.65217E-02   -0.12991E-02 14936   0.186E+00    0.195E-01
DAV:   5    -0.357601746056E+02    0.35736E-03   -0.53645E-03 10844   0.733E-01    0.631E-02
DAV:   6    -0.357601912630E+02   -0.16657E-04   -0.75357E-04 12968   0.354E-01    0.440E-02
DAV:   7    -0.357601890631E+02    0.21999E-05   -0.80110E-05 11940   0.194E-01    0.269E-02
DAV:   8    -0.357601930370E+02   -0.39740E-05   -0.39125E-05 17180   0.700E-02    0.954E-03
DAV:   9    -0.357601927472E+02    0.28985E-06   -0.11803E-05 13120   0.379E-02    0.375E-03
DAV:  10    -0.357601930694E+02   -0.32222E-06   -0.45616E-06 13552   0.137E-02    0.256E-03
DAV:  11    -0.357601931147E+02   -0.45291E-07   -0.57435E-07 13128   0.667E-03    0.845E-04
DAV:  12    -0.357601932065E+02   -0.91844E-07   -0.18161E-07 10824   0.442E-03    0.332E-04
DAV:  13    -0.357601932129E+02   -0.63851E-08   -0.16417E-08  8004   0.197E-03
  23 F= -.35760193E+02 E0= -.35759891E+02  d E =-.585540E-01
 ZBRENT: can't locate minimum, use default step
 trial-energy change:   -0.058554  1 .order   -0.058619   -0.066246   -0.050992
 step:   1.4334(harm=  1.5562)  dis= 0.06457  next Energy=   -35.845484 (dE=-0.144E+00)
 bond charge predicted
       N       E                     dE             d eps       ncg     rms          rms(c)
DAV:   1    -0.367893446028E+02   -0.10292E+01   -0.75380E+01 11276   0.834E+01    0.855E+00
DAV:   2    -0.360178540041E+02    0.77149E+00   -0.93104E+00 11800   0.384E+01    0.347E+00
DAV:   3    -0.359128995564E+02    0.10495E+00   -0.77134E-01 14020   0.920E+00    0.170E+00
DAV:   4    -0.358520303836E+02    0.60869E-01   -0.99303E-02 15612   0.556E+00    0.606E-01
DAV:   5    -0.358485858384E+02    0.34445E-02   -0.46041E-02 11040   0.208E+00    0.175E-01
DAV:   6    -0.358487389973E+02   -0.15316E-03   -0.65758E-03 12840   0.101E+00    0.126E-01
DAV:   7    -0.358487125480E+02    0.26449E-04   -0.63171E-04 12028   0.548E-01    0.755E-02
DAV:   8    -0.358487332881E+02   -0.20740E-04   -0.30127E-04 17340   0.183E-01    0.243E-02
DAV:   9    -0.358487344302E+02   -0.11422E-05   -0.86642E-05 12960   0.914E-02    0.958E-03
DAV:  10    -0.358487372415E+02   -0.28113E-05   -0.29584E-05 13156   0.344E-02    0.770E-03
DAV:  11    -0.358487373540E+02   -0.11247E-06   -0.50486E-06 13400   0.185E-02    0.259E-03
DAV:  12    -0.358487379400E+02   -0.58597E-06   -0.15643E-06 10964   0.139E-02    0.126E-03
DAV:  13    -0.358487379597E+02   -0.19723E-07   -0.22321E-07 12908   0.487E-03    0.534E-04
DAV:  14    -0.358487379715E+02   -0.11776E-07   -0.72417E-08 10692   0.210E-03    0.300E-04
DAV:  15    -0.358487379645E+02    0.69531E-08   -0.10676E-08  7676   0.183E-03
  24 F= -.35848738E+02 E0= -.35848391E+02  d E =-.147099E+00
 curvature:  -1.32 expect dE=-0.157E+00 dE for cont linesearch -0.244E-02
 ZBRENT: extrapolating
 opt :   1.6536  next Energy=   -35.851402 (dE=-0.150E+00)
 bond charge predicted
       N       E                     dE             d eps       ncg     rms          rms(c)
DAV:   1    -0.358946959509E+02   -0.45958E-01   -0.30053E+00 11624   0.155E+01    0.174E+00
DAV:   2    -0.358587697615E+02    0.35926E-01   -0.36530E-01 11608   0.816E+00    0.682E-01
DAV:   3    -0.358540421238E+02    0.47276E-02   -0.29136E-02 14140   0.203E+00    0.333E-01
DAV:   4    -0.358517538340E+02    0.22883E-02   -0.45416E-03 15076   0.106E+00    0.119E-01
DAV:   5    -0.358516111269E+02    0.14271E-03   -0.19566E-03 10948   0.415E-01    0.369E-02
DAV:   6    -0.358516172255E+02   -0.60985E-05   -0.27051E-04 12736   0.201E-01    0.248E-02
DAV:   7    -0.358516165368E+02    0.68863E-06   -0.26464E-05 12196   0.113E-01    0.157E-02
DAV:   8    -0.358516185095E+02   -0.19727E-05   -0.13402E-05 16660   0.416E-02    0.583E-03
DAV:   9    -0.358516184842E+02    0.25307E-07   -0.44430E-06 13396   0.240E-02    0.201E-03
DAV:  10    -0.358516186271E+02   -0.14292E-06   -0.14171E-06 12788   0.892E-03    0.153E-03
DAV:  11    -0.358516186566E+02   -0.29519E-07   -0.22228E-07 12960   0.398E-03    0.467E-04
DAV:  12    -0.358516187007E+02   -0.44059E-07   -0.69620E-08 10692   0.285E-03    0.262E-04
DAV:  13    -0.358516187049E+02   -0.42305E-08   -0.73624E-09  6460   0.135E-03
  25 F= -.35851619E+02 E0= -.35851255E+02  d E =-.149980E+00
 curvature:  -1.45 expect dE=-0.218E+00 dE for cont linesearch -0.119E-04
 trial: gam= 0.86678 g(F)=  0.874E-01 g(S)=  0.631E-01 ort = 0.162E-02 (trialstep = 0.501E+00)
 search vector abs. value=  0.392E+00
 bond charge predicted
       N       E                     dE             d eps       ncg     rms          rms(c)
DAV:   1    -0.359550611343E+02   -0.10344E+00   -0.19235E+01  9912   0.256E+01    0.212E+00
DAV:   2    -0.359416343352E+02    0.13427E-01   -0.66863E-01 11168   0.855E+00    0.112E+00
DAV:   3    -0.359226020709E+02    0.19032E-01   -0.65959E-02 13156   0.327E+00    0.524E-01
DAV:   4    -0.359179677547E+02    0.46343E-02   -0.15758E-02 12220   0.259E+00    0.130E-01
DAV:   5    -0.359183205085E+02   -0.35275E-03   -0.62744E-03 10756   0.934E-01    0.653E-02
DAV:   6    -0.359183790185E+02   -0.58510E-04   -0.99825E-04 12000   0.441E-01    0.426E-02
DAV:   7    -0.359183833719E+02   -0.43534E-05   -0.18283E-04 13076   0.322E-01    0.176E-02
DAV:   8    -0.359183854454E+02   -0.20735E-05   -0.60385E-05 13880   0.120E-01    0.667E-03
DAV:   9    -0.359183865700E+02   -0.11246E-05   -0.12727E-05 10840   0.323E-02    0.425E-03
DAV:  10    -0.359183867538E+02   -0.18388E-06   -0.20823E-06 13492   0.149E-02    0.174E-03
DAV:  11    -0.359183868275E+02   -0.73673E-07   -0.40970E-07 12696   0.878E-03    0.524E-04
DAV:  12    -0.359183868269E+02    0.60618E-09   -0.64500E-08 11320   0.217E-03
  26 F= -.35918387E+02 E0= -.35918185E+02  d E =-.667681E-01
 trial-energy change:   -0.066768  1 .order   -0.066576   -0.076034   -0.057119
 step:   1.7475(harm=  2.0122)  dis= 0.09848  next Energy=   -35.992488 (dE=-0.141E+00)
 bond charge predicted
       N       E                     dE             d eps       ncg     rms          rms(c)
DAV:   1    -0.361297389744E+02   -0.21135E+00   -0.12146E+02  9912   0.673E+01    0.526E+00
DAV:   2    -0.361362054881E+02   -0.64665E-02   -0.48413E+00 11176   0.232E+01    0.280E+00
DAV:   3    -0.360252266462E+02    0.11098E+00   -0.46390E-01 13576   0.878E+00    0.136E+00
DAV:   4    -0.359917948043E+02    0.33432E-01   -0.10271E-01 12252   0.534E+00    0.331E-01
DAV:   5    -0.359938241373E+02   -0.20293E-02   -0.41148E-02 11800   0.236E+00    0.179E-01
DAV:   6    -0.359940863964E+02   -0.26226E-03   -0.62239E-03 11596   0.131E+00    0.106E-01
DAV:   7    -0.359941377348E+02   -0.51338E-04   -0.12515E-03 12688   0.582E-01    0.613E-02
DAV:   8    -0.359941402330E+02   -0.24982E-05   -0.36889E-04 13100   0.271E-01    0.162E-02
DAV:   9    -0.359941491529E+02   -0.89199E-05   -0.10197E-04 12312   0.813E-02    0.114E-02
DAV:  10    -0.359941493725E+02   -0.21959E-06   -0.13716E-05 12340   0.398E-02    0.458E-03
DAV:  11    -0.359941500705E+02   -0.69800E-06   -0.28458E-06 11124   0.214E-02    0.126E-03
DAV:  12    -0.359941501636E+02   -0.93115E-07   -0.46347E-07 12144   0.906E-03    0.830E-04
DAV:  13    -0.359941502003E+02   -0.36738E-07   -0.99828E-08 10928   0.455E-03    0.294E-04
DAV:  14    -0.359941502065E+02   -0.62132E-08   -0.20774E-08  7852   0.193E-03
  27 F= -.35994150E+02 E0= -.35994102E+02  d E =-.142532E+00
 curvature:  -2.52 expect dE=-0.716E+00 dE for cont linesearch -0.158E-03
 trial: gam= 1.81119 g(F)=  0.265E+00 g(S)=  0.194E-01 ort = 0.495E-02 (trialstep = 0.185E+00)
 search vector abs. value=  0.159E+01
 bond charge predicted
       N       E                     dE             d eps       ncg     rms          rms(c)
DAV:   1    -0.360744113957E+02   -0.80261E-01   -0.10824E+01  9876   0.200E+01    0.177E+00
DAV:   2    -0.360595194200E+02    0.14892E-01   -0.43632E-01 11180   0.796E+00    0.886E-01
DAV:   3    -0.360488062673E+02    0.10713E-01   -0.43033E-02 12828   0.272E+00    0.450E-01
DAV:   4    -0.360450391075E+02    0.37672E-02   -0.95390E-03 12804   0.192E+00    0.113E-01
DAV:   5    -0.360452318184E+02   -0.19271E-03   -0.42083E-03 10836   0.753E-01    0.496E-02
DAV:   6    -0.360452723554E+02   -0.40537E-04   -0.63290E-04 12288   0.345E-01    0.347E-02
DAV:   7    -0.360452751631E+02   -0.28078E-05   -0.10158E-04 12920   0.232E-01    0.155E-02
DAV:   8    -0.360452781371E+02   -0.29739E-05   -0.31750E-05 13576   0.721E-02    0.434E-03
DAV:   9    -0.360452789084E+02   -0.77138E-06   -0.71353E-06 10796   0.219E-02    0.308E-03
DAV:  10    -0.360452791581E+02   -0.24966E-06   -0.12707E-06 13684   0.125E-02    0.155E-03
DAV:  11    -0.360452792023E+02   -0.44174E-07   -0.35502E-07 12876   0.634E-03    0.477E-04
DAV:  12    -0.360452792187E+02   -0.16459E-07   -0.69231E-08 10772   0.243E-03    0.246E-04
DAV:  13    -0.360452792203E+02   -0.15666E-08   -0.68459E-09  7080   0.162E-03
  28 F= -.36045279E+02 E0= -.36045243E+02  d E =-.511290E-01
 ZBRENT: can't locate minimum, use default step
 trial-energy change:   -0.051129  1 .order   -0.051153   -0.054294   -0.048012
 step:   0.7405(harm=  1.6001)  dis= 0.08819  next Energy=   -36.228782 (dE=-0.235E+00)
 bond charge predicted
       N       E                     dE             d eps       ncg     rms          rms(c)
DAV:   1    -0.363477862692E+02   -0.30251E+00   -0.99026E+01  9884   0.633E+01    0.529E+00
DAV:   2    -0.362871131129E+02    0.60673E-01   -0.43812E+00 11148   0.247E+01    0.269E+00
DAV:   3    -0.361949584209E+02    0.92155E-01   -0.40168E-01 12824   0.810E+00    0.138E+00
DAV:   4    -0.361580443920E+02    0.36914E-01   -0.93942E-02 13148   0.489E+00    0.329E-01
DAV:   5    -0.361598211959E+02   -0.17768E-02   -0.39565E-02 11412   0.234E+00    0.159E-01
DAV:   6    -0.361600740781E+02   -0.25288E-03   -0.50840E-03 11728   0.993E-01    0.100E-01
DAV:   7    -0.361601131788E+02   -0.39101E-04   -0.10110E-03 12596   0.508E-01    0.587E-02
DAV:   8    -0.361601261736E+02   -0.12995E-04   -0.27500E-04 11328   0.214E-01    0.180E-02
DAV:   9    -0.361601336486E+02   -0.74750E-05   -0.10267E-04 15100   0.853E-02    0.101E-02
DAV:  10    -0.361601337899E+02   -0.14128E-06   -0.12981E-05 11380   0.393E-02    0.569E-03
DAV:  11    -0.361601350218E+02   -0.12319E-05   -0.41631E-06 11456   0.186E-02    0.172E-03
DAV:  12    -0.361601351258E+02   -0.10402E-06   -0.72433E-07 11880   0.111E-02    0.117E-03
DAV:  13    -0.361601351846E+02   -0.58857E-07   -0.16832E-07 12100   0.374E-03    0.521E-04
DAV:  14    -0.361601352027E+02   -0.18076E-07   -0.32696E-08  9060   0.309E-03    0.330E-04
DAV:  15    -0.361601352059E+02   -0.31287E-08   -0.12763E-08  7276   0.217E-03
  29 F= -.36160135E+02 E0= -.36160117E+02  d E =-.165985E+00
 curvature:  -2.74 expect dE=-0.287E+00 dE for cont linesearch -0.400E-01
 ZBRENT: increasing intervall
 opt :   1.8514  next Energy=   -36.210704 (dE=-0.217E+00)
 bond charge predicted
       N       E                     dE             d eps       ncg     rms          rms(c)
DAV:   1    -0.362753680179E+02   -0.11523E+00   -0.41416E+02  9880   0.140E+02    0.105E+01
DAV:   2    -0.367074137496E+02   -0.43205E+00   -0.22031E+01 11608   0.524E+01    0.556E+00
DAV:   3    -0.363652253970E+02    0.34219E+00   -0.17469E+00 13296   0.173E+01    0.293E+00
DAV:   4    -0.362027276262E+02    0.16250E+00   -0.49479E-01 12344   0.879E+00    0.829E-01
DAV:   5    -0.362035780462E+02   -0.85042E-03   -0.17537E-01 13216   0.554E+00    0.400E-01
DAV:   6    -0.362043010953E+02   -0.72305E-03   -0.29375E-02 11436   0.262E+00    0.198E-01
DAV:   7    -0.362046421806E+02   -0.34109E-03   -0.68884E-03 13192   0.134E+00    0.130E-01
DAV:   8    -0.362046652120E+02   -0.23031E-04   -0.15848E-03 11616   0.557E-01    0.441E-02
DAV:   9    -0.362047209382E+02   -0.55726E-04   -0.48065E-04 13452   0.362E-01    0.213E-02
DAV:  10    -0.362047282785E+02   -0.73403E-05   -0.95579E-05 11548   0.102E-01    0.117E-02
DAV:  11    -0.362047346910E+02   -0.64125E-05   -0.31181E-05 12024   0.914E-02    0.634E-03
DAV:  12    -0.362047353368E+02   -0.64586E-06   -0.70092E-06 12904   0.540E-02    0.199E-03
DAV:  13    -0.362047357400E+02   -0.40316E-06   -0.20064E-06 12220   0.117E-02    0.126E-03
DAV:  14    -0.362047359031E+02   -0.16315E-06   -0.29083E-07 11984   0.948E-03    0.687E-04
DAV:  15    -0.362047359263E+02   -0.23153E-07   -0.88404E-08 11476   0.308E-03    0.379E-04
DAV:  16    -0.362047359268E+02   -0.47612E-09   -0.33805E-08  9536   0.251E-03
  30 F= -.36204736E+02 E0= -.36204727E+02  d E =-.210586E+00
 curvature:  -3.46 expect dE=-0.680E+00 dE for cont linesearch -0.188E-01
 ZBRENT: bracketing found
 ZBRENT: interpolating
 opt :   1.4308  next Energy=   -36.224271 (dE=-0.230E+00)
 bond charge predicted
       N       E                     dE             d eps       ncg     rms          rms(c)
DAV:   1    -0.363332614443E+02   -0.12853E+00   -0.53935E+01  9888   0.418E+01    0.357E+00
DAV:   2    -0.362818845782E+02    0.51377E-01   -0.18149E+00 11348   0.155E+01    0.189E+00
DAV:   3    -0.362326612706E+02    0.49223E-01   -0.19143E-01 12844   0.700E+00    0.966E-01
DAV:   4    -0.362179949310E+02    0.14666E-01   -0.55796E-02 12968   0.505E+00    0.257E-01
DAV:   5    -0.362190793260E+02   -0.10844E-02   -0.22226E-02 10720   0.157E+00    0.112E-01
DAV:   6    -0.362192760691E+02   -0.19674E-03   -0.31327E-03 12140   0.514E-01    0.747E-02
DAV:   7    -0.362192659893E+02    0.10080E-04   -0.29767E-04 12292   0.348E-01    0.378E-02
DAV:   8    -0.362192819696E+02   -0.15980E-04   -0.13474E-04 14668   0.120E-01    0.128E-02
DAV:   9    -0.362192818438E+02    0.12583E-06   -0.29921E-05 13184   0.750E-02    0.630E-03
DAV:  10    -0.362192825309E+02   -0.68710E-06   -0.71778E-06 12236   0.248E-02    0.456E-03
DAV:  11    -0.362192826832E+02   -0.15230E-06   -0.17216E-06 13388   0.141E-02    0.145E-03
DAV:  12    -0.362192827853E+02   -0.10207E-06   -0.70360E-07 11404   0.137E-02    0.640E-04
DAV:  13    -0.362192828120E+02   -0.26715E-07   -0.58447E-08 11220   0.429E-03    0.207E-04
DAV:  14    -0.362192828260E+02   -0.14041E-07   -0.20237E-08  8000   0.159E-03    0.106E-04
DAV:  15    -0.362192828297E+02   -0.36339E-08   -0.32618E-09  6328   0.867E-04
  31 F= -.36219283E+02 E0= -.36219272E+02  d E =-.225133E+00
 curvature:  -3.60 expect dE=-0.396E+00 dE for cont linesearch -0.803E-04
 trial: gam= 0.31026 g(F)=  0.754E-01 g(S)=  0.348E-01 ort = 0.596E-02 (trialstep = 0.434E+00)
 search vector abs. value=  0.267E+00
 bond charge predicted
       N       E                     dE             d eps       ncg     rms          rms(c)
DAV:   1    -0.362475945663E+02   -0.28312E-01   -0.11324E+01  9860   0.183E+01    0.917E-01
DAV:   2    -0.362670955034E+02   -0.19501E-01   -0.29630E-01 11684   0.427E+00    0.509E-01
DAV:   3    -0.362646485990E+02    0.24469E-02   -0.15897E-02 12608   0.153E+00    0.303E-01
DAV:   4    -0.362634782486E+02    0.11704E-02   -0.38901E-03 13348   0.145E+00    0.721E-02
DAV:   5    -0.362635549599E+02   -0.76711E-04   -0.17037E-03 11780   0.676E-01    0.350E-02
DAV:   6    -0.362635775809E+02   -0.22621E-04   -0.33405E-04 11536   0.144E-01    0.245E-02
DAV:   7    -0.362635740454E+02    0.35356E-05   -0.17827E-05 13764   0.105E-01    0.122E-02
DAV:   8    -0.362635748329E+02   -0.78754E-06   -0.13161E-05 11992   0.317E-02    0.407E-03
DAV:   9    -0.362635749786E+02   -0.14567E-06   -0.40087E-06 13760   0.421E-02    0.250E-03
DAV:  10    -0.362635750158E+02   -0.37213E-07   -0.69409E-07 10980   0.691E-03    0.154E-03
DAV:  11    -0.362635750359E+02   -0.20082E-07   -0.24456E-07 12900   0.604E-03    0.400E-04
DAV:  12    -0.362635750337E+02    0.21410E-08   -0.25115E-08  9656   0.204E-03
  32 F= -.36263575E+02 E0= -.36263566E+02  d E =-.442922E-01
 ZBRENT: can't locate minimum, use default step
 trial-energy change:   -0.044292  1 .order   -0.044239   -0.048646   -0.039833
 step:   1.7370(harm=  2.3970)  dis= 0.07356  next Energy=   -36.353538 (dE=-0.134E+00)
 bond charge predicted
       N       E                     dE             d eps       ncg     rms          rms(c)
DAV:   1    -0.361684634112E+02    0.95112E-01   -0.10250E+02  9864   0.553E+01    0.288E+00
DAV:   2    -0.363809535516E+02   -0.21249E+00   -0.30726E+00 11724   0.128E+01    0.162E+00
DAV:   3    -0.363539408218E+02    0.27013E-01   -0.14182E-01 13584   0.534E+00    0.100E+00
DAV:   4    -0.363419852263E+02    0.11956E-01   -0.45922E-02 14168   0.297E+00    0.282E-01
DAV:   5    -0.363422875742E+02   -0.30235E-03   -0.18104E-02 12972   0.200E+00    0.138E-01
DAV:   6    -0.363423747425E+02   -0.87168E-04   -0.23084E-03 11508   0.652E-01    0.770E-02
DAV:   7    -0.363423610789E+02    0.13664E-04   -0.37824E-04 13252   0.262E-01    0.497E-02
DAV:   8    -0.363423582388E+02    0.28401E-05   -0.14747E-04 12716   0.195E-01    0.110E-02
DAV:   9    -0.363423635400E+02   -0.53013E-05   -0.46062E-05 11428   0.499E-02    0.886E-03
DAV:  10    -0.363423634656E+02    0.74383E-07   -0.36809E-06 12320   0.297E-02    0.441E-03
DAV:  11    -0.363423636369E+02   -0.17125E-06   -0.16846E-06 11720   0.157E-02    0.159E-03
DAV:  12    -0.363423636746E+02   -0.37707E-07   -0.42907E-07 11412   0.827E-03    0.720E-04
DAV:  13    -0.363423636710E+02    0.35666E-08   -0.85505E-08 13300   0.230E-03
  33 F= -.36342364E+02 E0= -.36342357E+02  d E =-.123081E+00
 curvature:  -2.53 expect dE=-0.228E+00 dE for cont linesearch -0.761E-02
 ZBRENT: extrapolating
 opt :   2.3188  next Energy=   -36.350601 (dE=-0.131E+00)
 bond charge predicted
       N       E                     dE             d eps       ncg     rms          rms(c)
DAV:   1    -0.363203394407E+02    0.22024E-01   -0.20365E+01  9856   0.246E+01    0.126E+00
DAV:   2    -0.363566838485E+02   -0.36344E-01   -0.55308E-01 11512   0.552E+00    0.705E-01
DAV:   3    -0.363520190957E+02    0.46648E-02   -0.26220E-02 13112   0.177E+00    0.414E-01
DAV:   4    -0.363498645068E+02    0.21546E-02   -0.68350E-03 13400   0.148E+00    0.950E-02
DAV:   5    -0.363499998062E+02   -0.13530E-03   -0.29286E-03 11684   0.845E-01    0.494E-02
DAV:   6    -0.363500254547E+02   -0.25648E-04   -0.46012E-04 11352   0.197E-01    0.337E-02
DAV:   7    -0.363500207730E+02    0.46817E-05   -0.43060E-05 13516   0.129E-01    0.195E-02
DAV:   8    -0.363500209270E+02   -0.15402E-06   -0.23268E-05 12500   0.511E-02    0.537E-03
DAV:   9    -0.363500213013E+02   -0.37430E-06   -0.69907E-06 13532   0.289E-02    0.358E-03
DAV:  10    -0.363500213207E+02   -0.19372E-07   -0.10426E-06 12200   0.121E-02    0.206E-03
DAV:  11    -0.363500213588E+02   -0.38154E-07   -0.58936E-07 12920   0.710E-03    0.651E-04
DAV:  12    -0.363500213581E+02    0.76534E-09   -0.53906E-08 10892   0.307E-03
  34 F= -.36350021E+02 E0= -.36350015E+02  d E =-.130739E+00
 curvature:  -2.74 expect dE=-0.409E+00 dE for cont linesearch -0.364E-04
 trial: gam= 1.37019 g(F)=  0.113E+00 g(S)=  0.364E-01 ort =-0.188E-02 (trialstep = 0.336E+00)
 search vector abs. value=  0.645E+00
 bond charge predicted
       N       E                     dE             d eps       ncg     rms          rms(c)
DAV:   1    -0.363551914192E+02   -0.51701E-02   -0.16797E+01  9908   0.225E+01    0.916E-01
DAV:   2    -0.363931005480E+02   -0.37909E-01   -0.45749E-01 10828   0.447E+00    0.492E-01
DAV:   3    -0.363917109898E+02    0.13896E-02   -0.16702E-02 13516   0.143E+00    0.298E-01
DAV:   4    -0.363907244396E+02    0.98655E-03   -0.41770E-03 12608   0.941E-01    0.919E-02
DAV:   5    -0.363907472188E+02   -0.22779E-04   -0.14243E-03 12480   0.566E-01    0.348E-02
DAV:   6    -0.363907654412E+02   -0.18222E-04   -0.27639E-04 11136   0.139E-01    0.265E-02
DAV:   7    -0.363907626239E+02    0.28173E-05   -0.20363E-05 13700   0.708E-02    0.170E-02
DAV:   8    -0.363907620265E+02    0.59737E-06   -0.13800E-05 12172   0.448E-02    0.466E-03
DAV:   9    -0.363907624813E+02   -0.45479E-06   -0.48879E-06 12280   0.222E-02    0.256E-03
DAV:  10    -0.363907626582E+02   -0.17685E-06   -0.11970E-06 12264   0.140E-02    0.188E-03
DAV:  11    -0.363907626621E+02   -0.39613E-08   -0.28677E-07 12328   0.569E-03    0.600E-04
DAV:  12    -0.363907626879E+02   -0.25786E-07   -0.13705E-07 11452   0.552E-03    0.415E-04
DAV:  13    -0.363907626920E+02   -0.40532E-08   -0.18635E-08  7904   0.118E-03
  35 F= -.36390763E+02 E0= -.36390755E+02  d E =-.407413E-01
 trial-energy change:   -0.040741  1 .order   -0.040586   -0.049190   -0.031982
 step:   0.8817(harm=  0.9594)  dis= 0.06154  next Energy=   -36.417451 (dE=-0.674E-01)
 bond charge predicted
       N       E                     dE             d eps       ncg     rms          rms(c)
DAV:   1    -0.363168529136E+02    0.73910E-01   -0.44555E+01  9920   0.368E+01    0.153E+00
DAV:   2    -0.364247681219E+02   -0.10792E+00   -0.12928E+00 10852   0.743E+00    0.837E-01
DAV:   3    -0.364203489705E+02    0.44192E-02   -0.45391E-02 14348   0.251E+00    0.517E-01
DAV:   4    -0.364175684800E+02    0.27805E-02   -0.12342E-02 12560   0.127E+00    0.157E-01
DAV:   5    -0.364176147223E+02   -0.46242E-04   -0.40291E-03 13192   0.931E-01    0.630E-02
DAV:   6    -0.364176501867E+02   -0.35464E-04   -0.62848E-04 11196   0.299E-01    0.430E-02
DAV:   7    -0.364176469492E+02    0.32375E-05   -0.92228E-05 12728   0.127E-01    0.295E-02
DAV:   8    -0.364176454801E+02    0.14692E-05   -0.48090E-05 12572   0.114E-01    0.848E-03
DAV:   9    -0.364176464489E+02   -0.96885E-06   -0.17458E-05 13908   0.504E-02    0.440E-03
DAV:  10    -0.364176470358E+02   -0.58683E-06   -0.40075E-06 10772   0.224E-02    0.321E-03
DAV:  11    -0.364176470813E+02   -0.45563E-07   -0.10311E-06 12676   0.120E-02    0.101E-03
DAV:  12    -0.364176471613E+02   -0.79955E-07   -0.34551E-07 10692   0.510E-03    0.621E-04
DAV:  13    -0.364176471718E+02   -0.10500E-07   -0.41239E-08 12028   0.223E-03    0.317E-04
DAV:  14    -0.364176471800E+02   -0.82246E-08   -0.17827E-08  8196   0.150E-03
  36 F= -.36417647E+02 E0= -.36417638E+02  d E =-.676258E-01
 curvature:  -2.08 expect dE=-0.155E+00 dE for cont linesearch -0.100E-05
 trial: gam= 0.28369 g(F)=  0.607E-01 g(S)=  0.141E-01 ort = 0.557E-03 (trialstep = 0.445E+00)
 search vector abs. value=  0.127E+00
 bond charge predicted
       N       E                     dE             d eps       ncg     rms          rms(c)
DAV:   1    -0.364386440707E+02   -0.20997E-01   -0.55026E+00  9892   0.151E+01    0.108E+00
DAV:   2    -0.364474025261E+02   -0.87585E-02   -0.31515E-01 11860   0.632E+00    0.501E-01
DAV:   3    -0.364459420072E+02    0.14605E-02   -0.21565E-02 12408   0.157E+00    0.271E-01
DAV:   4    -0.364446242256E+02    0.13178E-02   -0.35190E-03 13628   0.867E-01    0.717E-02
DAV:   5    -0.364446785206E+02   -0.54295E-04   -0.15083E-03 11244   0.380E-01    0.370E-02
DAV:   6    -0.364446801586E+02   -0.16380E-05   -0.14099E-04 11728   0.207E-01    0.214E-02
DAV:   7    -0.364446793794E+02    0.77912E-06   -0.34239E-05 14512   0.952E-02    0.108E-02
DAV:   8    -0.364446798970E+02   -0.51752E-06   -0.12487E-05 12436   0.311E-02    0.543E-03
DAV:   9    -0.364446797408E+02    0.15615E-06   -0.46088E-06 13448   0.280E-02    0.252E-03
DAV:  10    -0.364446798491E+02   -0.10833E-06   -0.97649E-07 11056   0.888E-03    0.146E-03
DAV:  11    -0.364446799038E+02   -0.54662E-07   -0.31363E-07 13164   0.388E-03    0.582E-04
DAV:  12    -0.364446799484E+02   -0.44557E-07   -0.36890E-08 10092   0.232E-03    0.181E-04
DAV:  13    -0.364446799533E+02   -0.49367E-08   -0.78724E-09  6812   0.112E-03
  37 F= -.36444680E+02 E0= -.36444668E+02  d E =-.270328E-01
 trial-energy change:   -0.027033  1 .order   -0.027048   -0.033340   -0.020755
 step:   1.1784(harm=  1.1784)  dis= 0.03491  next Energy=   -36.461809 (dE=-0.442E-01)
 bond charge predicted
       N       E                     dE             d eps       ncg     rms          rms(c)
DAV:   1    -0.364435355741E+02    0.11444E-02   -0.14973E+01  9940   0.252E+01    0.178E+00
DAV:   2    -0.364693569892E+02   -0.25821E-01   -0.86693E-01 11944   0.105E+01    0.826E-01
DAV:   3    -0.364655654687E+02    0.37915E-02   -0.59617E-02 12460   0.262E+00    0.449E-01
DAV:   4    -0.364620038020E+02    0.35617E-02   -0.97301E-03 12872   0.149E+00    0.120E-01
DAV:   5    -0.364621340968E+02   -0.13029E-03   -0.41169E-03 11600   0.675E-01    0.621E-02
DAV:   6    -0.364621442869E+02   -0.10190E-04   -0.47120E-04 11388   0.380E-01    0.343E-02
DAV:   7    -0.364621429046E+02    0.13823E-05   -0.99138E-05 13292   0.174E-01    0.197E-02
DAV:   8    -0.364621441567E+02   -0.12521E-05   -0.39663E-05 11884   0.552E-02    0.902E-03
DAV:   9    -0.364621435886E+02    0.56808E-06   -0.12323E-05 12808   0.444E-02    0.398E-03
DAV:  10    -0.364621439705E+02   -0.38183E-06   -0.29721E-06 11124   0.152E-02    0.276E-03
DAV:  11    -0.364621440411E+02   -0.70593E-07   -0.83917E-07 13320   0.732E-03    0.975E-04
DAV:  12    -0.364621441196E+02   -0.78584E-07   -0.15292E-07 11096   0.465E-03    0.385E-04
DAV:  13    -0.364621441394E+02   -0.19791E-07   -0.32691E-08  9464   0.231E-03    0.207E-04
DAV:  14    -0.364621441486E+02   -0.91222E-08   -0.89011E-09  7016   0.790E-04
  38 F= -.36462144E+02 E0= -.36462124E+02  d E =-.444970E-01
 curvature:  -1.00 expect dE=-0.444E-01 dE for cont linesearch -0.861E-05
 trial: gam= 0.56912 g(F)=  0.366E-01 g(S)=  0.788E-02 ort = 0.105E-02 (trialstep = 0.592E+00)
 search vector abs. value=  0.868E-01
 bond charge predicted
       N       E                     dE             d eps       ncg     rms          rms(c)
DAV:   1    -0.364682412048E+02   -0.60971E-02   -0.65645E+00  9856   0.141E+01    0.739E-01
DAV:   2    -0.364848413111E+02   -0.16600E-01   -0.24701E-01 12456   0.390E+00    0.401E-01
DAV:   3    -0.364839866731E+02    0.85464E-03   -0.12818E-02 11688   0.105E+00    0.230E-01
DAV:   4    -0.364831367438E+02    0.84993E-03   -0.23652E-03 13096   0.633E-01    0.690E-02
DAV:   5    -0.364831751529E+02   -0.38409E-04   -0.10396E-03 11952   0.294E-01    0.305E-02
DAV:   6    -0.364831761646E+02   -0.10117E-05   -0.10736E-04 11480   0.896E-02    0.206E-02
DAV:   7    -0.364831739295E+02    0.22351E-05   -0.11559E-05 12652   0.404E-02    0.116E-02
DAV:   8    -0.364831736766E+02    0.25288E-06   -0.74323E-06 13980   0.311E-02    0.314E-03
DAV:   9    -0.364831738788E+02   -0.20215E-06   -0.23191E-06 12680   0.192E-02    0.237E-03
DAV:  10    -0.364831739103E+02   -0.31503E-07   -0.49936E-07 12444   0.820E-03    0.146E-03
DAV:  11    -0.364831739084E+02    0.19081E-08   -0.12952E-07 12104   0.466E-03    0.586E-04
DAV:  12    -0.364831739140E+02   -0.56607E-08   -0.79729E-08 12840   0.263E-03
  39 F= -.36483174E+02 E0= -.36483153E+02  d E =-.210298E-01
 trial-energy change:   -0.021030  1 .order   -0.020968   -0.026672   -0.015263
 step:   1.3287(harm=  1.3828)  dis= 0.02818  next Energy=   -36.492805 (dE=-0.307E-01)
 bond charge predicted
       N       E                     dE             d eps       ncg     rms          rms(c)
DAV:   1    -0.364696778574E+02    0.13496E-01   -0.10201E+01  9856   0.176E+01    0.927E-01
DAV:   2    -0.364956149162E+02   -0.25937E-01   -0.38792E-01 12368   0.484E+00    0.506E-01
DAV:   3    -0.364942042699E+02    0.14106E-02   -0.20060E-02 11756   0.131E+00    0.292E-01
DAV:   4    -0.364928583354E+02    0.13459E-02   -0.38239E-03 13160   0.802E-01    0.895E-02
DAV:   5    -0.364929131726E+02   -0.54837E-04   -0.16738E-03 12056   0.388E-01    0.388E-02
DAV:   6    -0.364929159420E+02   -0.27694E-05   -0.17853E-04 11504   0.115E-01    0.261E-02
DAV:   7    -0.364929124507E+02    0.34913E-05   -0.18368E-05 13140   0.552E-02    0.148E-02
DAV:   8    -0.364929119915E+02    0.45924E-06   -0.11954E-05 13832   0.442E-02    0.412E-03
DAV:   9    -0.364929123624E+02   -0.37093E-06   -0.41133E-06 12856   0.260E-02    0.301E-03
DAV:  10    -0.364929124172E+02   -0.54783E-07   -0.82659E-07 12708   0.943E-03    0.183E-03
DAV:  11    -0.364929124236E+02   -0.63706E-08   -0.21720E-07 11988   0.570E-03    0.738E-04
DAV:  12    -0.364929124314E+02   -0.78030E-08   -0.12305E-07 13372   0.338E-03    0.319E-04
DAV:  13    -0.364929124406E+02   -0.92168E-08   -0.28696E-08 10524   0.207E-03
  40 F= -.36492912E+02 E0= -.36492889E+02  d E =-.307683E-01
 curvature:  -1.33 expect dE=-0.483E-01 dE for cont linesearch -0.152E-05
 trial: gam= 0.78669 g(F)=  0.308E-01 g(S)=  0.567E-02 ort = 0.315E-03 (trialstep = 0.708E+00)
 search vector abs. value=  0.907E-01
 bond charge predicted
       N       E                     dE             d eps       ncg     rms          rms(c)
DAV:   1    -0.364937207487E+02   -0.80832E-03   -0.99054E+00  9976   0.180E+01    0.108E+00
DAV:   2    -0.365145114878E+02   -0.20791E-01   -0.38327E-01 11936   0.580E+00    0.573E-01
DAV:   3    -0.365123448214E+02    0.21667E-02   -0.27618E-02 11668   0.186E+00    0.324E-01
DAV:   4    -0.365107420146E+02    0.16028E-02   -0.59286E-03 12800   0.912E-01    0.909E-02
DAV:   5    -0.365107781520E+02   -0.36137E-04   -0.19080E-03 11320   0.356E-01    0.366E-02
DAV:   6    -0.365107854361E+02   -0.72841E-05   -0.19160E-04 11112   0.178E-01    0.239E-02
DAV:   7    -0.365107845415E+02    0.89455E-06   -0.33210E-05 12816   0.111E-01    0.129E-02
DAV:   8    -0.365107851511E+02   -0.60964E-06   -0.14176E-05 12924   0.432E-02    0.420E-03
DAV:   9    -0.365107853085E+02   -0.15735E-06   -0.45938E-06 11816   0.154E-02    0.256E-03
DAV:  10    -0.365107853669E+02   -0.58378E-07   -0.69470E-07 11196   0.603E-03    0.118E-03
DAV:  11    -0.365107854017E+02   -0.34838E-07   -0.16269E-07 12524   0.411E-03    0.568E-04
DAV:  12    -0.365107854273E+02   -0.25604E-07   -0.35411E-08 10624   0.130E-03    0.264E-04
DAV:  13    -0.365107854347E+02   -0.73846E-08   -0.48157E-09  6308   0.738E-04
  41 F= -.36510785E+02 E0= -.36510767E+02  d E =-.178730E-01
 trial-energy change:   -0.017873  1 .order   -0.017846   -0.025958   -0.009734
 step:   1.1323(harm=  1.1323)  dis= 0.02632  next Energy=   -36.513679 (dE=-0.208E-01)
 bond charge predicted
       N       E                     dE             d eps       ncg     rms          rms(c)
DAV:   1    -0.365078357166E+02    0.29497E-02   -0.35637E+00  9936   0.107E+01    0.644E-01
DAV:   2    -0.365150610203E+02   -0.72253E-02   -0.13481E-01 11904   0.339E+00    0.340E-01
DAV:   3    -0.365142667981E+02    0.79422E-03   -0.95659E-03 11708   0.108E+00    0.193E-01
DAV:   4    -0.365136939115E+02    0.57289E-03   -0.19895E-03 12892   0.551E-01    0.523E-02
DAV:   5    -0.365137124799E+02   -0.18568E-04   -0.66705E-04 11280   0.216E-01    0.215E-02
DAV:   6    -0.365137147096E+02   -0.22297E-05   -0.64132E-05 11292   0.105E-01    0.144E-02
DAV:   7    -0.365137144021E+02    0.30752E-06   -0.12195E-05 12992   0.677E-02    0.735E-03
DAV:   8    -0.365137147633E+02   -0.36124E-06   -0.51107E-06 12880   0.276E-02    0.244E-03
DAV:   9    -0.365137148199E+02   -0.56616E-07   -0.16325E-06 11992   0.983E-03    0.152E-03
DAV:  10    -0.365137148561E+02   -0.36188E-07   -0.25926E-07 11016   0.400E-03    0.643E-04
DAV:  11    -0.365137148773E+02   -0.21142E-07   -0.59697E-08 11748   0.251E-03    0.291E-04
DAV:  12    -0.365137148886E+02   -0.11346E-07   -0.71829E-09  6692   0.928E-04    0.112E-04
DAV:  13    -0.365137148918E+02   -0.31523E-08   -0.28938E-09  6124   0.703E-04
  42 F= -.36513715E+02 E0= -.36513699E+02  d E =-.208025E-01
 curvature:  -1.40 expect dE=-0.216E-01 dE for cont linesearch -0.102E-07
 trial: gam= 0.38510 g(F)=  0.116E-01 g(S)=  0.382E-02 ort = 0.257E-04 (trialstep = 0.793E+00)
 search vector abs. value=  0.289E-01
 bond charge predicted
       N       E                     dE             d eps       ncg     rms          rms(c)
DAV:   1    -0.365266710046E+02   -0.12956E-01   -0.34274E+00  9872   0.104E+01    0.790E-01
DAV:   2    -0.365265473402E+02    0.12366E-03   -0.87408E-02 11716   0.286E+00    0.464E-01
DAV:   3    -0.365233552374E+02    0.31921E-02   -0.78887E-03 13024   0.949E-01    0.185E-01
DAV:   4    -0.365229018960E+02    0.45334E-03   -0.23894E-03 11256   0.457E-01    0.375E-02
DAV:   5    -0.365229516991E+02   -0.49803E-04   -0.63757E-04 11476   0.225E-01    0.288E-02
DAV:   6    -0.365229499190E+02    0.17801E-05   -0.44215E-05 12652   0.854E-02    0.173E-02
DAV:   7    -0.365229494275E+02    0.49144E-06   -0.14900E-05 11912   0.540E-02    0.628E-03
DAV:   8    -0.365229497353E+02   -0.30781E-06   -0.53388E-06 12904   0.345E-02    0.277E-03
DAV:   9    -0.365229498166E+02   -0.81285E-07   -0.12203E-06 10852   0.125E-02    0.184E-03
DAV:  10    -0.365229498140E+02    0.26298E-08   -0.23882E-07 12116   0.666E-03    0.718E-04
DAV:  11    -0.365229498107E+02    0.32633E-08   -0.77516E-08 11324   0.369E-03
  43 F= -.36522950E+02 E0= -.36522938E+02  d E =-.923492E-02
 trial-energy change:   -0.009235  1 .order   -0.009249   -0.012227   -0.006271
 step:   1.6271(harm=  1.6271)  dis= 0.01860  next Energy=   -36.526265 (dE=-0.126E-01)
 bond charge predicted
       N       E                     dE             d eps       ncg     rms          rms(c)
DAV:   1    -0.365303882060E+02   -0.74384E-02   -0.38006E+00  9872   0.110E+01    0.834E-01
DAV:   2    -0.365302122664E+02    0.17594E-03   -0.97276E-02 11728   0.303E+00    0.490E-01
DAV:   3    -0.365266714289E+02    0.35408E-02   -0.87818E-03 12936   0.100E+00    0.196E-01
DAV:   4    -0.365261569172E+02    0.51451E-03   -0.26647E-03 11276   0.486E-01    0.394E-02
DAV:   5    -0.365262136024E+02   -0.56685E-04   -0.72131E-04 11472   0.240E-01    0.305E-02
DAV:   6    -0.365262115850E+02    0.20174E-05   -0.49256E-05 12712   0.906E-02    0.183E-02
DAV:   7    -0.365262110523E+02    0.53272E-06   -0.16722E-05 11860   0.560E-02    0.666E-03
DAV:   8    -0.365262114004E+02   -0.34812E-06   -0.59427E-06 12900   0.369E-02    0.292E-03
DAV:   9    -0.365262114936E+02   -0.93181E-07   -0.13652E-06 10868   0.134E-02    0.194E-03
DAV:  10    -0.365262114928E+02    0.83855E-09   -0.26902E-07 12104   0.691E-03    0.760E-04
DAV:  11    -0.365262114899E+02    0.29268E-08   -0.87109E-08 11324   0.389E-03
  44 F= -.36526211E+02 E0= -.36526203E+02  d E =-.124966E-01
 curvature:  -1.52 expect dE=-0.259E-01 dE for cont linesearch -0.870E-06
 trial: gam= 1.08208 g(F)=  0.132E-01 g(S)=  0.385E-02 ort =-0.128E-03 (trialstep = 0.548E+00)
 search vector abs. value=  0.506E-01
 bond charge predicted
       N       E                     dE             d eps       ncg     rms          rms(c)
DAV:   1    -0.365336813889E+02   -0.74699E-02   -0.29607E+00  9972   0.988E+00    0.642E-01
DAV:   2    -0.365356825045E+02   -0.20011E-02   -0.84470E-02 11884   0.277E+00    0.368E-01
DAV:   3    -0.365341732438E+02    0.15093E-02   -0.55298E-03 13032   0.840E-01    0.179E-01
DAV:   4    -0.365336879183E+02    0.48533E-03   -0.14081E-03 12256   0.427E-01    0.358E-02
DAV:   5    -0.365337163517E+02   -0.28433E-04   -0.49876E-04 10948   0.179E-01    0.194E-02
DAV:   6    -0.365337171767E+02   -0.82498E-06   -0.31025E-05 12292   0.478E-02    0.123E-02
DAV:   7    -0.365337178662E+02   -0.68951E-06   -0.85725E-06 11764   0.230E-02    0.458E-03
DAV:   8    -0.365337180205E+02   -0.15426E-06   -0.23303E-06 12948   0.179E-02    0.180E-03
DAV:   9    -0.365337181051E+02   -0.84618E-07   -0.88494E-07 10656   0.886E-03    0.120E-03
DAV:  10    -0.365337181127E+02   -0.76079E-08   -0.13759E-07 11836   0.450E-03    0.737E-04
DAV:  11    -0.365337181269E+02   -0.14160E-07   -0.41296E-08 10140   0.343E-03    0.298E-04
DAV:  12    -0.365337181360E+02   -0.91709E-08   -0.15536E-08  7152   0.136E-03
  45 F= -.36533718E+02 E0= -.36533711E+02  d E =-.750665E-02
 trial-energy change:   -0.007507  1 .order   -0.007510   -0.009258   -0.005763
 step:   1.4515(harm=  1.4515)  dis= 0.02947  next Energy=   -36.538473 (dE=-0.123E-01)
 bond charge predicted
       N       E                     dE             d eps       ncg     rms          rms(c)
DAV:   1    -0.365374873438E+02   -0.37692E-02   -0.80573E+00  9988   0.164E+01    0.106E+00
DAV:   2    -0.365439719134E+02   -0.64846E-02   -0.23884E-01 12128   0.466E+00    0.606E-01
DAV:   3    -0.365398675326E+02    0.41044E-02   -0.14557E-02 12828   0.140E+00    0.295E-01
DAV:   4    -0.365385397736E+02    0.13278E-02   -0.39413E-03 12228   0.707E-01    0.588E-02
DAV:   5    -0.365386153623E+02   -0.75589E-04   -0.13375E-03 10984   0.298E-01    0.320E-02
DAV:   6    -0.365386184361E+02   -0.30738E-05   -0.98342E-05 12032   0.821E-02    0.203E-02
DAV:   7    -0.365386195552E+02   -0.11191E-05   -0.22481E-05 12504   0.649E-02    0.763E-03
DAV:   8    -0.365386198487E+02   -0.29348E-06   -0.76391E-06 13516   0.330E-02    0.299E-03
DAV:   9    -0.365386200270E+02   -0.17832E-06   -0.27441E-06 10608   0.128E-02    0.220E-03
DAV:  10    -0.365386200439E+02   -0.16872E-07   -0.26359E-07 12564   0.799E-03    0.116E-03
DAV:  11    -0.365386200731E+02   -0.29223E-07   -0.12246E-07 13308   0.487E-03    0.518E-04
DAV:  12    -0.365386200943E+02   -0.21208E-07   -0.41100E-08 11436   0.257E-03    0.227E-04
DAV:  13    -0.365386200954E+02   -0.11296E-08   -0.73697E-09  6092   0.819E-04
  46 F= -.36538620E+02 E0= -.36538615E+02  d E =-.124086E-01
 curvature:  -2.17 expect dE=-0.142E-01 dE for cont linesearch -0.620E-05
 trial: gam= 0.35388 g(F)=  0.556E-02 g(S)=  0.969E-03 ort = 0.380E-03 (trialstep = 0.729E+00)
 search vector abs. value=  0.131E-01
 bond charge predicted
       N       E                     dE             d eps       ncg     rms          rms(c)
DAV:   1    -0.365402927442E+02   -0.16726E-02   -0.13290E+00  9936   0.653E+00    0.410E-01
DAV:   2    -0.365424951056E+02   -0.22024E-02   -0.44637E-02 13048   0.206E+00    0.227E-01
DAV:   3    -0.365418677271E+02    0.62738E-03   -0.34108E-03 11920   0.901E-01    0.127E-01
DAV:   4    -0.365417101649E+02    0.15756E-03   -0.78007E-04 13368   0.584E-01    0.268E-02
DAV:   5    -0.365417286132E+02   -0.18448E-04   -0.28588E-04 10956   0.154E-01    0.165E-02
DAV:   6    -0.365417293363E+02   -0.72314E-06   -0.32627E-05 12552   0.655E-02    0.801E-03
DAV:   7    -0.365417292457E+02    0.90607E-07   -0.48795E-06 13688   0.447E-02    0.462E-03
DAV:   8    -0.365417294126E+02   -0.16685E-06   -0.20535E-06 12088   0.129E-02    0.167E-03
DAV:   9    -0.365417293992E+02    0.13390E-07   -0.31415E-07 16280   0.826E-03    0.891E-04
DAV:  10    -0.365417293872E+02    0.11938E-07   -0.98612E-08 11748   0.358E-03    0.479E-04
DAV:  11    -0.365417293797E+02    0.75102E-08   -0.57674E-08 10424   0.243E-03
  47 F= -.36541729E+02 E0= -.36541724E+02  d E =-.310928E-02
 trial-energy change:   -0.003109  1 .order   -0.003100   -0.004858   -0.001341
 step:   1.0003(harm=  1.0066)  dis= 0.00893  next Energy=   -36.541980 (dE=-0.336E-02)
 bond charge predicted
       N       E                     dE             d eps       ncg     rms          rms(c)
DAV:   1    -0.365417836726E+02   -0.54285E-04   -0.18481E-01  9924   0.244E+00    0.153E-01
DAV:   2    -0.365420874370E+02   -0.30376E-03   -0.61832E-03 13048   0.774E-01    0.848E-02
DAV:   3    -0.365420002478E+02    0.87189E-04   -0.47373E-04 11616   0.341E-01    0.475E-02
DAV:   4    -0.365419782934E+02    0.21954E-04   -0.11146E-04 13384   0.220E-01    0.101E-02
DAV:   5    -0.365419808814E+02   -0.25880E-05   -0.40707E-05 10912   0.588E-02    0.626E-03
DAV:   6    -0.365419809611E+02   -0.79698E-07   -0.46911E-06 12632   0.260E-02    0.305E-03
DAV:   7    -0.365419809348E+02    0.26324E-07   -0.70573E-07 13172   0.167E-02    0.171E-03
DAV:   8    -0.365419809418E+02   -0.69622E-08   -0.29868E-07 12400   0.491E-03    0.602E-04
DAV:   9    -0.365419809346E+02    0.71950E-08   -0.34971E-08 10168   0.282E-03
  48 F= -.36541981E+02 E0= -.36541976E+02  d E =-.336084E-02
 curvature:  -0.99 expect dE=-0.372E-02 dE for cont linesearch -0.105E-08
 trial: gam= 0.60843 g(F)=  0.255E-02 g(S)=  0.121E-02 ort = 0.372E-05 (trialstep = 0.783E+00)
 search vector abs. value=  0.862E-02
 bond charge predicted
       N       E                     dE             d eps       ncg     rms          rms(c)
DAV:   1    -0.365470641634E+02   -0.50832E-02   -0.10151E+00 10884   0.695E+00    0.619E-01
DAV:   2    -0.365452282606E+02    0.18359E-02   -0.64417E-02 11092   0.312E+00    0.265E-01
DAV:   3    -0.365446736446E+02    0.55462E-03   -0.49730E-03 12884   0.789E-01    0.136E-01
DAV:   4    -0.365443334631E+02    0.34018E-03   -0.80010E-04 14028   0.388E-01    0.403E-02
DAV:   5    -0.365443318153E+02    0.16478E-05   -0.34673E-04 11492   0.142E-01    0.125E-02
DAV:   6    -0.365443329024E+02   -0.10871E-05   -0.22749E-05 11932   0.400E-02    0.736E-03
DAV:   7    -0.365443332221E+02   -0.31968E-06   -0.25572E-06 13248   0.270E-02    0.417E-03
DAV:   8    -0.365443335157E+02   -0.29363E-06   -0.77589E-07 12016   0.160E-02    0.986E-04
DAV:   9    -0.365443336159E+02   -0.10020E-06   -0.34472E-07 12296   0.550E-03    0.637E-04
DAV:  10    -0.365443336157E+02    0.24829E-09   -0.62123E-08 10684   0.335E-03
  49 F= -.36544334E+02 E0= -.36544329E+02  d E =-.235268E-02
 trial-energy change:   -0.002353  1 .order   -0.002360   -0.002941   -0.001778
 step:   2.1080(harm=  1.9805)  dis= 0.01521  next Energy=   -36.545805 (dE=-0.382E-02)
 bond charge predicted
[...]
DAV:   6    -0.365583571639E+02   -0.12838E-08   -0.13276E-08  6028   0.196E-03
 115 F= -.36558357E+02 E0= -.36558356E+02  d E =-.940401E-06
 ZBRENT: can't locate minimum, use default step
 trial-energy change:   -0.000001  1 .order   -0.000001   -0.000001   -0.000001
 step:   2.7025(harm=  4.9148)  dis= 0.00052  next Energy=   -36.558360 (dE=-0.344E-05)
 bond charge predicted
       N       E                     dE             d eps       ncg     rms          rms(c)
DAV:   1    -0.365583555512E+02    0.16114E-05   -0.49314E-03  9860   0.415E-01    0.267E-02
DAV:   2    -0.365583614538E+02   -0.59026E-05   -0.18004E-04 10140   0.133E-01    0.136E-02
DAV:   3    -0.365583598511E+02    0.16027E-05   -0.14143E-05 13328   0.387E-02    0.748E-03
DAV:   4    -0.365583590007E+02    0.85041E-06   -0.29144E-06 13652   0.200E-02    0.195E-03
DAV:   5    -0.365583590091E+02   -0.83651E-08   -0.99245E-07 11520   0.107E-02    0.904E-04
DAV:   6    -0.365583590178E+02   -0.87198E-08   -0.13912E-07 11332   0.597E-03    0.572E-04
DAV:   7    -0.365583590243E+02   -0.65179E-08   -0.22420E-08  7180   0.270E-03
 116 F= -.36558359E+02 E0= -.36558357E+02  d E =-.280088E-05
 curvature:  -8.02 expect dE=-0.146E-04 dE for cont linesearch -0.237E-06
 ZBRENT: increasing intervall
 opt :   6.7563  next Energy=   -36.558358 (dE=-0.140E-05)
 bond charge predicted
       N       E                     dE             d eps       ncg     rms          rms(c)
DAV:   1    -0.365583428015E+02    0.16216E-04   -0.19731E-02  9860   0.830E-01    0.535E-02
DAV:   2    -0.365583660979E+02   -0.23296E-04   -0.72101E-04 10140   0.267E-01    0.272E-02
DAV:   3    -0.365583600439E+02    0.60540E-05   -0.56735E-05 13328   0.773E-02    0.150E-02
DAV:   4    -0.365583568482E+02    0.31956E-05   -0.11708E-05 13664   0.397E-02    0.391E-03
DAV:   5    -0.365583569207E+02   -0.72449E-07   -0.39824E-06 11512   0.212E-02    0.181E-03
DAV:   6    -0.365583569499E+02   -0.29187E-07   -0.54863E-07 11492   0.119E-02    0.114E-03
DAV:   7    -0.365583569640E+02   -0.14104E-07   -0.10008E-07 11684   0.535E-03    0.717E-04
DAV:   8    -0.365583569842E+02   -0.20237E-07   -0.38085E-08  9840   0.206E-03    0.198E-04
DAV:   9    -0.365583569898E+02   -0.55793E-08   -0.10258E-08  6028   0.110E-03
 117 F= -.36558357E+02 E0= -.36558355E+02  d E =-.766339E-06
 curvature:  47.32 expect dE= 0.538E-03 dE for cont linesearch  0.593E-05
 ZBRENT: bracketing found
 ZBRENT: interpolating
 opt :   4.0285  next Energy=   -36.558359 (dE=-0.309E-05)
 bond charge predicted
       N       E                     dE             d eps       ncg     rms          rms(c)
DAV:   1    -0.365583529404E+02    0.40438E-05   -0.89280E-03  9860   0.557E-01    0.360E-02
DAV:   2    -0.365583629684E+02   -0.10028E-04   -0.32544E-04 10104   0.179E-01    0.183E-02
DAV:   3    -0.365583606215E+02    0.23470E-05   -0.25485E-05 13320   0.520E-02    0.101E-02
DAV:   4    -0.365583594240E+02    0.11975E-05   -0.53010E-06 13624   0.269E-02    0.263E-03
DAV:   5    -0.365583595032E+02   -0.79215E-07   -0.17966E-06 11492   0.145E-02    0.121E-03
DAV:   6    -0.365583595110E+02   -0.78285E-08   -0.25200E-07 11476   0.805E-03    0.766E-04
DAV:   7    -0.365583595041E+02    0.68644E-08   -0.45617E-08 10812   0.362E-03
 118 F= -.36558360E+02 E0= -.36558358E+02  d E =-.328069E-05
 curvature:  -2.28 expect dE=-0.863E-05 dE for cont linesearch -0.122E-07
 trial: gam= 2.92892 g(F)=  0.315E-05 g(S)=  0.636E-06 ort = 0.183E-06 (trialstep = 0.144E+00)
 search vector abs. value=  0.587E-04
 bond charge predicted
       N       E                     dE             d eps       ncg     rms          rms(c)
DAV:   1    -0.365583598449E+02   -0.33394E-06   -0.23673E-04  9856   0.864E-02    0.503E-03
DAV:   2    -0.365583601905E+02   -0.34560E-06   -0.67420E-06 10116   0.219E-02    0.295E-03
DAV:   3    -0.365583600827E+02    0.10783E-06   -0.49545E-07 12832   0.842E-03    0.152E-03
DAV:   4    -0.365583600464E+02    0.36356E-07   -0.13348E-07 12940   0.568E-03    0.375E-04
DAV:   5    -0.365583600487E+02   -0.23692E-08   -0.43946E-08 10288   0.269E-03
 119 F= -.36558360E+02 E0= -.36558358E+02  d E =-.544586E-06
 ZBRENT: can't locate minimum, use default step
 trial-energy change:   -0.000001  1 .order   -0.000001   -0.000001   -0.000001
 step:   0.5758(harm=  0.7900)  dis= 0.00033  next Energy=   -36.558361 (dE=-0.171E-05)
 bond charge predicted
       N       E                     dE             d eps       ncg     rms          rms(c)
DAV:   1    -0.365583594311E+02    0.61530E-06   -0.21380E-03  9856   0.260E-01    0.151E-02
DAV:   2    -0.365583625271E+02   -0.30961E-05   -0.61919E-05 10132   0.646E-02    0.891E-03
DAV:   3    -0.365583616491E+02    0.87808E-06   -0.44502E-06 12936   0.234E-02    0.460E-03
DAV:   4    -0.365583613822E+02    0.26688E-06   -0.12054E-06 13060   0.159E-02    0.114E-03
DAV:   5    -0.365583614036E+02   -0.21470E-07   -0.40129E-07 11512   0.807E-03    0.680E-04
DAV:   6    -0.365583614079E+02   -0.43096E-08   -0.63105E-08  9844   0.389E-03
 120 F= -.36558361E+02 E0= -.36558360E+02  d E =-.190381E-05
 curvature:  -4.78 expect dE=-0.951E-05 dE for cont linesearch -0.385E-06
 ZBRENT: increasing intervall
 opt :   1.4395  next Energy=   -36.558362 (dE=-0.261E-05)
 bond charge predicted
       N       E                     dE             d eps       ncg     rms          rms(c)
DAV:   1    -0.365583532859E+02    0.81177E-05   -0.85547E-03  9856   0.519E-01    0.303E-02
DAV:   2    -0.365583655052E+02   -0.12219E-04   -0.24818E-04 10124   0.131E-01    0.179E-02
DAV:   3    -0.365583620853E+02    0.34199E-05   -0.18036E-05 12816   0.485E-02    0.927E-03
DAV:   4    -0.365583610556E+02    0.10297E-05   -0.49570E-06 13152   0.330E-02    0.232E-03
DAV:   5    -0.365583611386E+02   -0.82992E-07   -0.16302E-06 11508   0.165E-02    0.136E-03
DAV:   6    -0.365583611545E+02   -0.15937E-07   -0.26898E-07 11520   0.782E-03    0.825E-04
DAV:   7    -0.365583611580E+02   -0.34488E-08   -0.51754E-08 10464   0.369E-03
 121 F= -.36558361E+02 E0= -.36558360E+02  d E =-.165383E-05
 curvature:  -8.76 expect dE=-0.261E-04 dE for cont linesearch -0.184E-09
 trial: gam= 0.70444 g(F)=  0.270E-05 g(S)=  0.275E-06 ort =-0.351E-07 (trialstep = 0.403E+00)
 search vector abs. value=  0.320E-04
 bond charge predicted
       N       E                     dE             d eps       ncg     rms          rms(c)
DAV:   1    -0.365583621093E+02   -0.95480E-06   -0.10257E-03  9856   0.185E-01    0.125E-02
DAV:   2    -0.365583629810E+02   -0.87167E-06   -0.33389E-05 10236   0.553E-02    0.686E-03
DAV:   3    -0.365583624479E+02    0.53314E-06   -0.25173E-06 12800   0.159E-02    0.364E-03
DAV:   4    -0.365583622394E+02    0.20843E-06   -0.66868E-07 13184   0.836E-03    0.845E-04
DAV:   5    -0.365583622394E+02   -0.23647E-10   -0.21056E-07 11432   0.428E-03    0.441E-04
DAV:   6    -0.365583622424E+02   -0.29208E-08   -0.21023E-08  7072   0.216E-03
 122 F= -.36558362E+02 E0= -.36558361E+02  d E =-.108440E-05
 trial-energy change:   -0.000001  1 .order   -0.000001   -0.000001   -0.000001
 step:   0.6649(harm=  1.2463)  dis= 0.00031  next Energy=   -36.558363 (dE=-0.137E-05)
 bond charge predicted
       N       E                     dE             d eps       ncg     rms          rms(c)
DAV:   1    -0.365583626851E+02   -0.44566E-06   -0.43284E-04  9856   0.120E-01    0.813E-03
DAV:   2    -0.365583630704E+02   -0.38532E-06   -0.14071E-05 10276   0.360E-02    0.445E-03
DAV:   3    -0.365583628307E+02    0.23971E-06   -0.10535E-06 12688   0.104E-02    0.236E-03
DAV:   4    -0.365583627332E+02    0.97536E-07   -0.27814E-07 13344   0.561E-03    0.538E-04
DAV:   5    -0.365583627316E+02    0.15339E-08   -0.88345E-08 11204   0.294E-03
 123 F= -.36558363E+02 E0= -.36558361E+02  d E =-.157367E-05
 curvature:  -3.55 expect dE=-0.352E-05 dE for cont linesearch -0.255E-06
 ZBRENT: increasing intervall
 opt :   1.1886  next Energy=   -36.558363 (dE=-0.212E-05)
 bond charge predicted
       N       E                     dE             d eps       ncg     rms          rms(c)
DAV:   1    -0.365583657741E+02   -0.30409E-05   -0.17298E-03  9856   0.241E-01    0.162E-02
DAV:   2    -0.365583671867E+02   -0.14126E-05   -0.55895E-05 10212   0.715E-02    0.888E-03
DAV:   3    -0.365583663287E+02    0.85797E-06   -0.41974E-06 13048   0.205E-02    0.469E-03
DAV:   4    -0.365583659942E+02    0.33451E-06   -0.10669E-06 13188   0.107E-02    0.107E-03
DAV:   5    -0.365583659986E+02   -0.44242E-08   -0.34753E-07 11344   0.538E-03    0.559E-04
DAV:   6    -0.365583660024E+02   -0.37458E-08   -0.33638E-08  9108   0.272E-03
 124 F= -.36558366E+02 E0= -.36558364E+02  d E =-.484438E-05
 curvature:  -7.55 expect dE=-0.852E-05 dE for cont linesearch -0.913E-09
 trial: gam= 0.35465 g(F)=  0.759E-06 g(S)=  0.370E-06 ort = 0.622E-07 (trialstep = 0.560E+00)
 search vector abs. value=  0.520E-05
 bond charge predicted
       N       E                     dE             d eps       ncg     rms          rms(c)
DAV:   1    -0.365583673248E+02   -0.13261E-05   -0.28562E-04  9860   0.992E-02    0.884E-03
DAV:   2    -0.365583670836E+02    0.24113E-06   -0.10420E-05 10700   0.333E-02    0.504E-03
DAV:   3    -0.365583666760E+02    0.40762E-06   -0.10461E-06 13784   0.110E-02    0.232E-03
DAV:   4    -0.365583665697E+02    0.10632E-06   -0.31210E-07 12720   0.532E-03    0.460E-04
DAV:   5    -0.365583665744E+02   -0.47467E-08   -0.98365E-08 10816   0.277E-03
 125 F= -.36558367E+02 E0= -.36558365E+02  d E =-.572075E-06
 trial-energy change:   -0.000001  1 .order   -0.000001   -0.000001   -0.000000
 step:   1.8135(harm=  1.8135)  dis= 0.00027  next Energy=   -36.558367 (dE=-0.104E-05)
 bond charge predicted
       N       E                     dE             d eps       ncg     rms          rms(c)
DAV:   1    -0.365583706698E+02   -0.41001E-05   -0.14275E-03  9856   0.221E-01    0.197E-02
DAV:   2    -0.365583693194E+02    0.13504E-05   -0.51793E-05 10692   0.743E-02    0.113E-02
DAV:   3    -0.365583674294E+02    0.18900E-05   -0.51828E-06 13768   0.246E-02    0.515E-03
DAV:   4    -0.365583669627E+02    0.46669E-06   -0.15435E-06 12616   0.117E-02    0.102E-03
DAV:   5    -0.365583669913E+02   -0.28634E-07   -0.48203E-07 10992   0.604E-03    0.622E-04
DAV:   6    -0.365583669952E+02   -0.38667E-08   -0.27243E-08  8548   0.216E-03
 126 F= -.36558367E+02 E0= -.36558365E+02  d E =-.992859E-06
 curvature:  -4.10 expect dE=-0.546E-05 dE for cont linesearch -0.328E-07
 trial: gam= 0.00000 g(F)=  0.109E-05 g(S)=  0.236E-06 ort =-0.204E-06 (trialstep = 0.811E+00)
 search vector abs. value=  0.133E-05
 bond charge predicted
       N       E                     dE             d eps       ncg     rms          rms(c)
DAV:   1    -0.365583671190E+02   -0.12762E-06   -0.17683E-04  9872   0.798E-02    0.606E-03
DAV:   2    -0.365583674837E+02   -0.36472E-06   -0.10050E-05 11844   0.329E-02    0.319E-03
DAV:   3    -0.365583673582E+02    0.12553E-06   -0.81749E-07 12748   0.107E-02    0.169E-03
DAV:   4    -0.365583672954E+02    0.62713E-07   -0.15652E-07 12628   0.576E-03    0.443E-04
DAV:   5    -0.365583672990E+02   -0.35466E-08   -0.59007E-08 10668   0.253E-03
 127 F= -.36558367E+02 E0= -.36558366E+02  d E =-.303777E-06
 trial-energy change:   -0.000000  1 .order   -0.000000   -0.000001    0.000000
 step:   0.5628(harm=  0.5628)  dis= 0.00007  next Energy=   -36.558367 (dE=-0.374E-06)
 bond charge predicted
       N       E                     dE             d eps       ncg     rms          rms(c)
DAV:   1    -0.365583673339E+02   -0.38414E-07   -0.16509E-05  9896   0.244E-02    0.183E-03
DAV:   2    -0.365583673720E+02   -0.38188E-07   -0.92902E-07 11740   0.102E-02    0.978E-04
DAV:   3    -0.365583673806E+02   -0.86029E-08   -0.76350E-08 11428   0.341E-03
 128 F= -.36558367E+02 E0= -.36558366E+02  d E =-.385435E-06
 curvature:  -0.28 expect dE=-0.989E-07 dE for cont linesearch -0.331E-10
 trial: gam= 0.27356 g(F)=  0.260E-06 g(S)=  0.912E-07 ort =-0.125E-07 (trialstep = 0.761E+00)
 search vector abs. value=  0.444E-06
 bond charge predicted
       N       E                     dE             d eps       ncg     rms          rms(c)
DAV:   1    -0.365583675163E+02   -0.14429E-06   -0.53505E-05 10596   0.471E-02    0.343E-03
DAV:   2    -0.365583675436E+02   -0.27242E-07   -0.27710E-06 11288   0.190E-02    0.170E-03
DAV:   3    -0.365583675637E+02   -0.20161E-07   -0.20776E-07 12760   0.476E-03    0.900E-04
DAV:   4    -0.365583675770E+02   -0.13304E-07   -0.30870E-08  9128   0.246E-03    0.244E-04
DAV:   5    -0.365583675867E+02   -0.96306E-08   -0.15335E-08  5948   0.122E-03
 129 F= -.36558368E+02 E0= -.36558366E+02  d E =-.206026E-06
 trial-energy change:   -0.000000  1 .order   -0.000000   -0.000000   -0.000000
 step:   1.4927(harm=  1.4927)  dis= 0.00007  next Energy=   -36.558368 (dE=-0.260E-06)
 bond charge predicted
       N       E                     dE             d eps       ncg     rms          rms(c)
DAV:   1    -0.365583676076E+02   -0.30584E-07   -0.49459E-05 10916   0.455E-02    0.330E-03
DAV:   2    -0.365583676306E+02   -0.22927E-07   -0.25122E-06 11296   0.181E-02    0.160E-03
DAV:   3    -0.365583676507E+02   -0.20108E-07   -0.18517E-07 13080   0.441E-03    0.853E-04
DAV:   4    -0.365583676640E+02   -0.13373E-07   -0.25805E-08  8560   0.229E-03    0.238E-04
DAV:   5    -0.365583676740E+02   -0.10006E-07   -0.14865E-08  5868   0.110E-03    0.850E-05
DAV:   6    -0.365583676724E+02    0.15934E-08   -0.24270E-09  5336   0.551E-04
 130 F= -.36558368E+02 E0= -.36558366E+02  d E =-.291800E-06
 curvature:  -0.95 expect dE=-0.348E-06 dE for cont linesearch -0.138E-09
 trial: gam= 0.95431 g(F)=  0.181E-06 g(S)=  0.185E-06 ort = 0.802E-08 (trialstep = 0.514E+00)
 search vector abs. value=  0.785E-06
 bond charge predicted
       N       E                     dE             d eps       ncg     rms          rms(c)
DAV:   1    -0.365583691658E+02   -0.14918E-05   -0.37417E-05 10036   0.355E-02    0.295E-03
DAV:   2    -0.365583691814E+02   -0.15552E-07   -0.12931E-06 12164   0.112E-02    0.166E-03
DAV:   3    -0.365583691294E+02    0.51959E-07   -0.10013E-07 12592   0.430E-03    0.717E-04
DAV:   4    -0.365583691232E+02    0.61650E-08   -0.28737E-08  7936   0.234E-03
 131 F= -.36558369E+02 E0= -.36558367E+02  d E =-.145080E-05
 ZBRENT: can't locate minimum, use default step
 trial-energy change:   -0.000001  1 .order   -0.000000   -0.000000   -0.000000
 step:   2.0541(harm=  3.8119)  dis= 0.00016  next Energy=   -36.558368 (dE=-0.711E-06)
 bond charge predicted
       N       E                     dE             d eps       ncg     rms          rms(c)
DAV:   1    -0.365583699275E+02   -0.79807E-06   -0.33638E-04 10036   0.106E-01    0.883E-03
DAV:   2    -0.365583699811E+02   -0.53585E-07   -0.11582E-05 12180   0.335E-02    0.496E-03
DAV:   3    -0.365583695866E+02    0.39445E-06   -0.90188E-07 12616   0.131E-02    0.215E-03
DAV:   4    -0.365583695279E+02    0.58753E-07   -0.28981E-07 11944   0.720E-03    0.421E-04
DAV:   5    -0.365583695402E+02   -0.12328E-07   -0.78006E-08 10656   0.316E-03    0.264E-04
DAV:   6    -0.365583695442E+02   -0.40036E-08   -0.83666E-09  5928   0.154E-03
 132 F= -.36558370E+02 E0= -.36558368E+02  d E =-.187175E-05
 curvature:  -2.87 expect dE=-0.998E-06 dE for cont linesearch -0.472E-07
 trial: gam= 0.00000 g(F)=  0.235E-06 g(S)=  0.112E-06 ort = 0.114E-06 (trialstep = 0.822E+00)
 search vector abs. value=  0.347E-06
 bond charge predicted
       N       E                     dE             d eps       ncg     rms          rms(c)
DAV:   1    -0.365583699610E+02   -0.42080E-06   -0.40893E-05 10176   0.459E-02    0.474E-03
DAV:   2    -0.365583698389E+02    0.12213E-06   -0.35423E-06 11696   0.243E-02    0.235E-03
DAV:   3    -0.365583697421E+02    0.96743E-07   -0.29988E-07 12788   0.679E-03    0.118E-03
DAV:   4    -0.365583696897E+02    0.52443E-07   -0.63230E-08 12736   0.367E-03    0.298E-04
DAV:   5    -0.365583696838E+02    0.58371E-08   -0.23239E-08  7808   0.164E-03
 133 F= -.36558370E+02 E0= -.36558368E+02  d E =-.139644E-06
 trial-energy change:   -0.000000  1 .order   -0.000000   -0.000000   -0.000000
 step:   0.8382(harm=  0.8382)  dis= 0.00004  next Energy=   -36.558370 (dE=-0.145E-06)
 bond charge predicted
       N       E                     dE             d eps       ncg     rms          rms(c)
DAV:   1    -0.365583696857E+02    0.39413E-08   -0.19663E-08  7256   0.127E-03    0.144E-04
DAV:   2    -0.365583696874E+02   -0.16262E-08   -0.34576E-09  5424   0.981E-04
 134 F= -.36558370E+02 E0= -.36558368E+02  d E =-.143166E-06
 curvature:  -0.42 expect dE=-0.809E-07 dE for cont linesearch -0.119E-08
 trial: gam= 0.64598 g(F)=  0.157E-06 g(S)=  0.356E-07 ort =-0.314E-07 (trialstep = 0.825E+00)
 search vector abs. value=  0.297E-06
 bond charge predicted
       N       E                     dE             d eps       ncg     rms          rms(c)
DAV:   1    -0.365583698716E+02   -0.18589E-06   -0.35164E-05  9884   0.332E-02    0.293E-03
DAV:   2    -0.365583698790E+02   -0.73610E-08   -0.12499E-06 11176   0.111E-02    0.172E-03
DAV:   3    -0.365583698344E+02    0.44600E-07   -0.14623E-07 14000   0.666E-03    0.695E-04
DAV:   4    -0.365583698273E+02    0.70668E-08   -0.35399E-08  9820   0.355E-03
 135 F= -.36558370E+02 E0= -.36558368E+02  d E =-.139955E-06
 trial-energy change:   -0.000000  1 .order   -0.000000   -0.000000   -0.000000
 step:   2.0799(harm=  2.0799)  dis= 0.00009  next Energy=   -36.558370 (dE=-0.180E-06)
 bond charge predicted
       N       E                     dE             d eps       ncg     rms          rms(c)
DAV:   1    -0.365583700058E+02   -0.17137E-06   -0.81015E-05  9880   0.506E-02    0.445E-03
DAV:   2    -0.365583700149E+02   -0.91100E-08   -0.29119E-06 11200   0.176E-02    0.261E-03
DAV:   3    -0.365583699161E+02    0.98752E-07   -0.35099E-07 13860   0.108E-02    0.111E-03
DAV:   4    -0.365583698992E+02    0.16922E-07   -0.86746E-08 11164   0.546E-03    0.265E-04
DAV:   5    -0.365583698999E+02   -0.67712E-09   -0.30903E-08  8440   0.134E-03
 136 F= -.36558370E+02 E0= -.36558368E+02  d E =-.212508E-06
 curvature:  -1.79 expect dE=-0.806E-06 dE for cont linesearch -0.128E-07
 trial: gam= 0.00000 g(F)=  0.341E-06 g(S)=  0.109E-06 ort =-0.462E-07 (trialstep = 0.711E+00)
 search vector abs. value=  0.450E-06
 bond charge predicted
       N       E                     dE             d eps       ncg     rms          rms(c)
DAV:   1    -0.365583703934E+02   -0.49425E-06   -0.45543E-05 11500   0.586E-02    0.568E-03
DAV:   2    -0.365583701758E+02    0.21767E-06   -0.50098E-06 11748   0.295E-02    0.222E-03
DAV:   3    -0.365583700911E+02    0.84646E-07   -0.40791E-07 13972   0.660E-03    0.112E-03
DAV:   4    -0.365583700408E+02    0.50328E-07   -0.51464E-08 11956   0.343E-03    0.360E-04
DAV:   5    -0.365583700311E+02    0.97102E-08   -0.22710E-08  7980   0.115E-03
 137 F= -.36558370E+02 E0= -.36558368E+02  d E =-.131227E-06
 trial-energy change:   -0.000000  1 .order   -0.000000   -0.000000    0.000000
 step:   0.6023(harm=  0.6023)  dis= 0.00004  next Energy=   -36.558370 (dE=-0.135E-06)
 bond charge predicted
       N       E                     dE             d eps       ncg     rms          rms(c)
DAV:   1    -0.365583700329E+02    0.79363E-08   -0.10645E-06 11592   0.896E-03    0.854E-04
DAV:   2    -0.365583700288E+02    0.40418E-08   -0.11746E-07 10908   0.461E-03    0.338E-04
DAV:   3    -0.365583700371E+02   -0.82728E-08   -0.72204E-09  5116   0.104E-03
 138 F= -.36558370E+02 E0= -.36558368E+02  d E =-.137232E-06
 curvature:  -0.30 expect dE=-0.413E-07 dE for cont linesearch -0.184E-08
 trial: gam= 0.18828 g(F)=  0.120E-06 g(S)=  0.167E-07 ort = 0.524E-07 (trialstep = 0.689E+00)
 search vector abs. value=  0.173E-06
 reached required accuracy - stopping structural energy minimisation
 writing wavefunctions
Thu Dec 23 23:41:38 CST 2021
