Sun Mar  6 00:58:15 CST 2022
 running on   48 total cores
 distrk:  each k-point on   48 cores,    1 groups
 distr:  one band on   24 cores,    2 groups
 using from now: INCAR     
 vasp.5.3.5 31Mar14 (build Jan 11 2016 19:50:55) complex                        
  
 POSCAR found type information on POSCAR  B  C 
 POSCAR found :  2 types and       8 ions
 scaLAPACK will be used

 ----------------------------------------------------------------------------- 
|                                                                             |
|           W    W    AA    RRRRR   N    N  II  N    N   GGGG   !!!           |
|           W    W   A  A   R    R  NN   N  II  NN   N  G    G  !!!           |
|           W    W  A    A  R    R  N N  N  II  N N  N  G       !!!           |
|           W WW W  AAAAAA  RRRRR   N  N N  II  N  N N  G  GGG   !            |
|           WW  WW  A    A  R   R   N   NN  II  N   NN  G    G                |
|           W    W  A    A  R    R  N    N  II  N    N   GGGG   !!!           |
|                                                                             |
|      For optimal performance we recommend to set                            |
|        NCORE= 4 - approx SQRT( number of cores)                             |
|      NCORE specifies how many cores store one orbital (NPAR=cpu/NCORE).     |
|      This setting can  greatly improve the performance of VASP for DFT.     |
|      The default, NPAR=number of cores might be grossly inefficient         |
|      on modern multi-core architectures or massively parallel machines.     |
|      Do your own testing !!!!                                               |
|      Unfortunately you need to use the default for GW and RPA calculations. |
|      (for HF NCORE is supported but not extensively tested yet)             |
|                                                                             |
 ----------------------------------------------------------------------------- 

 LDA part: xc-table for Pade appr. of Perdew
 POSCAR, INCAR and KPOINTS ok, starting setup
 WARNING: small aliasing (wrap around) errors must be expected
 FFT: planning ...
 WAVECAR not read
 entering main loop
       N       E                     dE             d eps       ncg     rms          rms(c)
DAV:   1     0.146133760644E+03    0.14613E+03   -0.17481E+04  4480   0.177E+03
DAV:   2    -0.577837281745E+02   -0.20392E+03   -0.19597E+03  6200   0.292E+02
DAV:   3    -0.697866497639E+02   -0.12003E+02   -0.11850E+02  5468   0.730E+01
DAV:   4    -0.700446334007E+02   -0.25798E+00   -0.25760E+00  5964   0.116E+01
DAV:   5    -0.700503906568E+02   -0.57573E-02   -0.57556E-02  5656   0.167E+00    0.129E+01
DAV:   6    -0.654916943701E+02    0.45587E+01   -0.64716E+00  5176   0.136E+01    0.711E+00
DAV:   7    -0.642533208027E+02    0.12384E+01   -0.30294E+00  5236   0.956E+00    0.244E+00
DAV:   8    -0.642227138679E+02    0.30607E-01   -0.19810E-01  5640   0.264E+00    0.753E-01
DAV:   9    -0.642273259868E+02   -0.46121E-02   -0.13711E-02  5420   0.804E-01    0.141E-01
DAV:  10    -0.642285152223E+02   -0.11892E-02   -0.22076E-03  5596   0.319E-01    0.472E-02
DAV:  11    -0.642287413810E+02   -0.22616E-03   -0.19759E-04  5348   0.966E-02    0.250E-02
DAV:  12    -0.642288550527E+02   -0.11367E-03   -0.11854E-04  5188   0.699E-02    0.567E-03
DAV:  13    -0.642288607854E+02   -0.57327E-05   -0.76288E-06  5704   0.181E-02    0.232E-03
DAV:  14    -0.642288617197E+02   -0.93428E-06   -0.14418E-06  5260   0.832E-03    0.780E-04
DAV:  15    -0.642288617856E+02   -0.65936E-07   -0.11621E-07  5940   0.224E-03    0.328E-04
DAV:  16    -0.642288618264E+02   -0.40748E-07   -0.58249E-08  5120   0.157E-03    0.124E-04
DAV:  17    -0.642288618250E+02    0.14115E-08   -0.23277E-09  3540   0.358E-04
   1 F= -.64228862E+02 E0= -.64213501E+02  d E =-.642289E+02
 curvature:   0.00 expect dE= 0.000E+00 dE for cont linesearch  0.000E+00
 trial: gam= 0.00000 g(F)=  0.544E-03 g(S)=  0.961E-03 ort = 0.000E+00 (trialstep = 0.100E+01)
 search vector abs. value=  0.151E-02
 bond charge predicted
       N       E                     dE             d eps       ncg     rms          rms(c)
DAV:   1    -0.642299825240E+02   -0.11207E-02   -0.10432E-01  4560   0.240E+00    0.144E-01
DAV:   2    -0.642293131711E+02    0.66935E-03   -0.26782E-03  5632   0.347E-01    0.812E-02
DAV:   3    -0.642289854920E+02    0.32768E-03   -0.94795E-04  5272   0.175E-01    0.224E-02
DAV:   4    -0.642289776618E+02    0.78302E-05   -0.44872E-05  5340   0.444E-02    0.123E-02
DAV:   5    -0.642289762108E+02    0.14510E-05   -0.85802E-06  5792   0.175E-02    0.369E-03
DAV:   6    -0.642289764776E+02   -0.26683E-06   -0.94724E-07  5652   0.632E-03    0.134E-03
DAV:   7    -0.642289765868E+02   -0.10922E-06   -0.12749E-07  5256   0.242E-03    0.502E-04
DAV:   8    -0.642289766068E+02   -0.19964E-07   -0.28664E-08  4580   0.114E-03    0.182E-04
DAV:   9    -0.642289766111E+02   -0.42653E-08   -0.54616E-09  3416   0.532E-04
   2 F= -.64228977E+02 E0= -.64213604E+02  d E =-.114786E-03
 trial-energy change:   -0.000115  1 .order   -0.000118   -0.001506    0.001270
 step:   0.5408(harm=  0.5424)  dis= 0.00167  next Energy=   -64.229269 (dE=-0.407E-03)
 bond charge predicted
       N       E                     dE             d eps       ncg     rms          rms(c)
DAV:   1    -0.642294794628E+02   -0.50286E-03   -0.21975E-02  4500   0.110E+00    0.659E-02
DAV:   2    -0.642293397245E+02    0.13974E-03   -0.56378E-04  5648   0.160E-01    0.373E-02
DAV:   3    -0.642292705450E+02    0.69180E-04   -0.20278E-04  5288   0.808E-02    0.102E-02
DAV:   4    -0.642292686181E+02    0.19268E-05   -0.95905E-06  5324   0.206E-02    0.561E-03
DAV:   5    -0.642292681821E+02    0.43605E-06   -0.18616E-06  5788   0.815E-03    0.169E-03
DAV:   6    -0.642292682110E+02   -0.28883E-07   -0.20357E-07  5640   0.293E-03    0.621E-04
DAV:   7    -0.642292682180E+02   -0.70613E-08   -0.26574E-08  4244   0.113E-03
   3 F= -.64229268E+02 E0= -.64213905E+02  d E =-.406393E-03
 curvature:  -0.27 expect dE=-0.429E-03 dE for cont linesearch -0.867E-09
 trial: gam= 1.04994 g(F)=  0.892E-03 g(S)=  0.691E-03 ort = 0.219E-05 (trialstep = 0.421E+00)
 search vector abs. value=  0.325E-02
 bond charge predicted
       N       E                     dE             d eps       ncg     rms          rms(c)
DAV:   1    -0.642303904639E+02   -0.11223E-02   -0.30219E-02  4508   0.119E+00    0.103E-01
DAV:   2    -0.642299662899E+02    0.42417E-03   -0.69599E-04  5192   0.169E-01    0.544E-02
DAV:   3    -0.642297905500E+02    0.17574E-03   -0.50644E-04  5112   0.120E-01    0.119E-02
DAV:   4    -0.642297894347E+02    0.11154E-05   -0.12434E-05  5364   0.233E-02    0.588E-03
DAV:   5    -0.642297893156E+02    0.11907E-06   -0.27692E-06  5916   0.103E-02    0.189E-03
DAV:   6    -0.642297894865E+02   -0.17091E-06   -0.43482E-07  5728   0.428E-03    0.784E-04
DAV:   7    -0.642297895548E+02   -0.68294E-07   -0.78188E-08  5380   0.184E-03    0.342E-04
DAV:   8    -0.642297895659E+02   -0.11135E-07   -0.10739E-08  3800   0.720E-04    0.118E-04
DAV:   9    -0.642297895666E+02   -0.68303E-09   -0.17926E-09  3052   0.303E-04
   4 F= -.64229790E+02 E0= -.64214444E+02  d E =-.521349E-03
 trial-energy change:   -0.000521  1 .order   -0.000521   -0.000667   -0.000374
 step:   0.9585(harm=  0.9585)  dis= 0.00161  next Energy=   -64.230028 (dE=-0.760E-03)
 bond charge predicted
       N       E                     dE             d eps       ncg     rms          rms(c)
DAV:   1    -0.642310120796E+02   -0.12225E-02   -0.49369E-02  4488   0.152E+00    0.131E-01
DAV:   2    -0.642303185012E+02    0.69358E-03   -0.11377E-03  5188   0.216E-01    0.696E-02
DAV:   3    -0.642300313121E+02    0.28719E-03   -0.82699E-04  5116   0.154E-01    0.152E-02
DAV:   4    -0.642300293660E+02    0.19461E-05   -0.20396E-05  5356   0.299E-02    0.750E-03
DAV:   5    -0.642300291062E+02    0.25976E-06   -0.45037E-06  5940   0.132E-02    0.242E-03
DAV:   6    -0.642300293676E+02   -0.26139E-06   -0.70736E-07  5704   0.547E-03    0.999E-04
DAV:   7    -0.642300294663E+02   -0.98665E-07   -0.12761E-07  5524   0.235E-03    0.435E-04
DAV:   8    -0.642300294839E+02   -0.17669E-07   -0.17565E-08  4088   0.915E-04    0.151E-04
DAV:   9    -0.642300294852E+02   -0.12203E-08   -0.27979E-09  3204   0.377E-04
   5 F= -.64230029E+02 E0= -.64214699E+02  d E =-.761267E-03
 curvature:  -0.98 expect dE=-0.348E-02 dE for cont linesearch -0.235E-08
 trial: gam= 2.24196 g(F)=  0.215E-02 g(S)=  0.139E-02 ort =-0.279E-05 (trialstep = 0.865E-01)
 search vector abs. value=  0.199E-01
 bond charge predicted
       N       E                     dE             d eps       ncg     rms          rms(c)
DAV:   1    -0.642305190457E+02   -0.48956E-03   -0.81238E-03  4500   0.590E-01    0.570E-02
DAV:   2    -0.642303792056E+02    0.13984E-03   -0.19532E-04  4924   0.865E-02    0.299E-02
DAV:   3    -0.642303259830E+02    0.53223E-04   -0.17234E-04  5140   0.702E-02    0.723E-03
DAV:   4    -0.642303253736E+02    0.60932E-06   -0.76671E-06  5156   0.177E-02    0.253E-03
DAV:   5    -0.642303252077E+02    0.16592E-06   -0.10811E-06  5268   0.631E-03    0.126E-03
DAV:   6    -0.642303252963E+02   -0.88523E-07   -0.11486E-07  5340   0.224E-03    0.310E-04
DAV:   7    -0.642303253114E+02   -0.15176E-07   -0.12668E-08  3548   0.779E-04    0.189E-04
DAV:   8    -0.642303253112E+02    0.19986E-09   -0.41727E-09  3156   0.457E-04
   6 F= -.64230325E+02 E0= -.64215005E+02  d E =-.295826E-03
 ZBRENT: can't locate minimum, use default step
 trial-energy change:   -0.000296  1 .order   -0.000295   -0.000306   -0.000285
 step:   0.3458(harm=  1.2458)  dis= 0.00067  next Energy=   -64.232232 (dE=-0.220E-02)
 bond charge predicted
       N       E                     dE             d eps       ncg     rms          rms(c)
DAV:   1    -0.642328280439E+02   -0.25027E-02   -0.73367E-02  4480   0.177E+00    0.171E-01
DAV:   2    -0.642315697646E+02    0.12583E-02   -0.17624E-03  4896   0.260E-01    0.899E-02
DAV:   3    -0.642310894730E+02    0.48029E-03   -0.15481E-03  5136   0.211E-01    0.217E-02
DAV:   4    -0.642310824275E+02    0.70455E-05   -0.69214E-05  5144   0.532E-02    0.757E-03
DAV:   5    -0.642310806014E+02    0.18261E-05   -0.97015E-06  5264   0.189E-02    0.377E-03
DAV:   6    -0.642310811479E+02   -0.54646E-06   -0.10310E-06  5320   0.672E-03    0.932E-04
DAV:   7    -0.642310812466E+02   -0.98717E-07   -0.13100E-07  5824   0.232E-03    0.604E-04
DAV:   8    -0.642310812611E+02   -0.14507E-07   -0.32923E-08  4624   0.125E-03    0.225E-04
DAV:   9    -0.642310812575E+02    0.36300E-08   -0.50437E-09  3352   0.480E-04
   7 F= -.64231081E+02 E0= -.64215789E+02  d E =-.105177E-02
 curvature:  -1.39 expect dE=-0.392E-02 dE for cont linesearch -0.449E-03
 ZBRENT: increasing intervall
 opt :   0.8646  next Energy=   -64.232003 (dE=-0.197E-02)
 bond charge predicted
       N       E                     dE             d eps       ncg     rms          rms(c)
DAV:   1    -0.642390242029E+02   -0.79429E-02   -0.29584E-01  4480   0.357E+00    0.345E-01
DAV:   2    -0.642339668389E+02    0.50574E-02   -0.70978E-03  4908   0.521E-01    0.180E-01
DAV:   3    -0.642320408206E+02    0.19260E-02   -0.61797E-03  5132   0.421E-01    0.433E-02
DAV:   4    -0.642320107290E+02    0.30092E-04   -0.27637E-04  5152   0.107E-01    0.151E-02
DAV:   5    -0.642320031690E+02    0.75600E-05   -0.38443E-05  5252   0.378E-02    0.753E-03
DAV:   6    -0.642320050521E+02   -0.18831E-05   -0.40760E-06  5332   0.134E-02    0.188E-03
DAV:   7    -0.642320053999E+02   -0.34772E-06   -0.51765E-07  5840   0.461E-03    0.118E-03
DAV:   8    -0.642320054808E+02   -0.80947E-07   -0.13109E-07  5124   0.247E-03    0.452E-04
DAV:   9    -0.642320054746E+02    0.61652E-08   -0.16629E-08  3480   0.881E-04
   8 F= -.64232005E+02 E0= -.64216764E+02  d E =-.197599E-02
 curvature:  -2.85 expect dE=-0.183E-01 dE for cont linesearch -0.142E-03
 ZBRENT: increasing intervall
 opt :   1.9020  next Energy=   -64.231440 (dE=-0.141E-02)
 bond charge predicted
       N       E                     dE             d eps       ncg     rms          rms(c)
DAV:   1    -0.642597530993E+02   -0.27748E-01   -0.12020E+00  4480   0.721E+00    0.697E-01
DAV:   2    -0.642393022289E+02    0.20451E-01   -0.28810E-02  4916   0.105E+00    0.363E-01
DAV:   3    -0.642315720827E+02    0.77301E-02   -0.24616E-02  5132   0.843E-01    0.864E-02
DAV:   4    -0.642314444868E+02    0.12760E-03   -0.11051E-03  5168   0.213E-01    0.299E-02
DAV:   5    -0.642314143858E+02    0.30101E-04   -0.15049E-04  5248   0.750E-02    0.151E-02
DAV:   6    -0.642314209717E+02   -0.65859E-05   -0.16111E-05  5360   0.265E-02    0.380E-03
DAV:   7    -0.642314221869E+02   -0.12152E-05   -0.20074E-06  5836   0.904E-03    0.228E-03
DAV:   8    -0.642314225526E+02   -0.36567E-06   -0.50516E-07  5140   0.485E-03    0.896E-04
DAV:   9    -0.642314225457E+02    0.68810E-08   -0.70061E-08  5352   0.170E-03
   9 F= -.64231423E+02 E0= -.64216267E+02  d E =-.139306E-02
 curvature:  11.36 expect dE= 0.352E+00 dE for cont linesearch  0.283E-02
 ZBRENT: bracketing found
 ZBRENT: interpolating
 opt :   1.1852  next Energy=   -64.232165 (dE=-0.214E-02)
 bond charge predicted
       N       E                     dE             d eps       ncg     rms          rms(c)
DAV:   1    -0.642459539974E+02   -0.14531E-01   -0.57539E-01  4480   0.495E+00    0.480E-01
DAV:   2    -0.642360544132E+02    0.98996E-02   -0.13711E-02  4864   0.729E-01    0.252E-01
DAV:   3    -0.642322580741E+02    0.37963E-02   -0.12237E-02  5120   0.592E-01    0.611E-02
DAV:   4    -0.642321937271E+02    0.64347E-04   -0.54519E-04  5148   0.149E-01    0.215E-02
DAV:   5    -0.642321772258E+02    0.16501E-04   -0.77300E-05  5232   0.534E-02    0.108E-02
DAV:   6    -0.642321801921E+02   -0.29663E-05   -0.82345E-06  5328   0.188E-02    0.255E-03
DAV:   7    -0.642321807470E+02   -0.55483E-06   -0.10252E-06  5900   0.649E-03    0.172E-03
DAV:   8    -0.642321809675E+02   -0.22055E-06   -0.25630E-07  5148   0.344E-03    0.633E-04
DAV:   9    -0.642321809829E+02   -0.15356E-07   -0.36341E-08  5208   0.123E-03    0.151E-04
DAV:  10    -0.642321809921E+02   -0.92443E-08   -0.32225E-09  3276   0.429E-04
  10 F= -.64232181E+02 E0= -.64216969E+02  d E =-.215151E-02
 curvature:  -0.64 expect dE=-0.737E-02 dE for cont linesearch -0.100E-07
 trial: gam= 3.20540 g(F)=  0.486E-02 g(S)=  0.664E-02 ort = 0.176E-04 (trialstep = 0.282E-01)
 search vector abs. value=  0.216E+00
 bond charge predicted
       N       E                     dE             d eps       ncg     rms          rms(c)
DAV:   1    -0.642327535905E+02   -0.57261E-03   -0.94971E-03  4480   0.631E-01    0.648E-02
DAV:   2    -0.642325682976E+02    0.18529E-03   -0.25765E-04  4904   0.100E-01    0.329E-02
DAV:   3    -0.642325061767E+02    0.62121E-04   -0.19999E-04  5120   0.765E-02    0.922E-03
DAV:   4    -0.642325045153E+02    0.16614E-05   -0.13575E-05  5144   0.226E-02    0.335E-03
DAV:   5    -0.642325040241E+02    0.49128E-06   -0.30663E-06  5256   0.103E-02    0.210E-03
DAV:   6    -0.642325041316E+02   -0.10756E-06   -0.47332E-07  5100   0.425E-03    0.461E-04
DAV:   7    -0.642325041236E+02    0.80547E-08   -0.24632E-08  3788   0.115E-03
  11 F= -.64232504E+02 E0= -.64217299E+02  d E =-.323131E-03
 ZBRENT: can't locate minimum, use default step
 trial-energy change:   -0.000323  1 .order   -0.000323   -0.000326   -0.000319
 step:   0.1128(harm=  1.4334)  dis= 0.00034  next Energy=   -64.240463 (dE=-0.828E-02)
 bond charge predicted
       N       E                     dE             d eps       ncg     rms          rms(c)
DAV:   1    -0.642356734349E+02   -0.31693E-02   -0.85772E-02  4480   0.190E+00    0.195E-01
DAV:   2    -0.642340072541E+02    0.16662E-02   -0.23253E-03  4908   0.300E-01    0.989E-02
DAV:   3    -0.642334469494E+02    0.56030E-03   -0.17965E-03  5120   0.229E-01    0.276E-02
DAV:   4    -0.642334301840E+02    0.16765E-04   -0.12080E-04  5128   0.673E-02    0.100E-02
DAV:   5    -0.642334257456E+02    0.44384E-05   -0.27022E-05  5260   0.308E-02    0.626E-03
DAV:   6    -0.642334262839E+02   -0.53834E-06   -0.41763E-06  5108   0.126E-02    0.138E-03
DAV:   7    -0.642334262706E+02    0.13274E-07   -0.23551E-07  5344   0.342E-03    0.643E-04
DAV:   8    -0.642334262822E+02   -0.11556E-07   -0.47306E-08  5320   0.139E-03    0.268E-04
DAV:   9    -0.642334262802E+02    0.19918E-08   -0.85834E-09  3508   0.666E-04
  12 F= -.64233426E+02 E0= -.64218240E+02  d E =-.124529E-02
 curvature:  -1.56 expect dE=-0.151E-01 dE for cont linesearch -0.799E-03
 ZBRENT: increasing intervall
 opt :   0.2820  next Energy=   -64.235063 (dE=-0.288E-02)
 bond charge predicted
       N       E                     dE             d eps       ncg     rms          rms(c)
DAV:   1    -0.642440959733E+02   -0.10670E-01   -0.34608E-01  4480   0.382E+00    0.392E-01
DAV:   2    -0.642374005440E+02    0.66954E-02   -0.93757E-03  4920   0.603E-01    0.199E-01
DAV:   3    -0.642351541462E+02    0.22464E-02   -0.71761E-03  5124   0.459E-01    0.553E-02
DAV:   4    -0.642350841994E+02    0.69947E-04   -0.47583E-04  5140   0.134E-01    0.200E-02
DAV:   5    -0.642350668482E+02    0.17351E-04   -0.10466E-04  5264   0.606E-02    0.124E-02
DAV:   6    -0.642350685027E+02   -0.16545E-05   -0.16189E-05  5100   0.248E-02    0.273E-03
DAV:   7    -0.642350684972E+02    0.54886E-08   -0.92983E-07  5348   0.677E-03    0.125E-03
DAV:   8    -0.642350685619E+02   -0.64671E-07   -0.18662E-07  5560   0.277E-03    0.520E-04
DAV:   9    -0.642350685709E+02   -0.90695E-08   -0.35820E-08  5088   0.131E-03
  13 F= -.64235069E+02 E0= -.64219913E+02  d E =-.288758E-02
 curvature:  -3.20 expect dE=-0.233E-01 dE for cont linesearch -0.115E-02
 ZBRENT: increasing intervall
 opt :   0.6203  next Energy=   -64.237479 (dE=-0.530E-02)
 bond charge predicted
       N       E                     dE             d eps       ncg     rms          rms(c)
DAV:   1    -0.642739035005E+02   -0.38835E-01   -0.14081E+00  4480   0.773E+00    0.793E-01
DAV:   2    -0.642468179224E+02    0.27086E-01   -0.38147E-02  4920   0.122E+00    0.401E-01
DAV:   3    -0.642378034535E+02    0.90145E-02   -0.28436E-02  5100   0.917E-01    0.111E-01
DAV:   4    -0.642375083373E+02    0.29512E-03   -0.17908E-03  5164   0.261E-01    0.395E-02
DAV:   5    -0.642374453314E+02    0.63006E-04   -0.37309E-04  5276   0.115E-01    0.241E-02
DAV:   6    -0.642374509909E+02   -0.56595E-05   -0.58682E-05  5088   0.472E-02    0.544E-03
DAV:   7    -0.642374509373E+02    0.53572E-07   -0.36139E-06  5344   0.132E-02    0.239E-03
DAV:   8    -0.642374512298E+02   -0.29249E-06   -0.73357E-07  5576   0.549E-03    0.975E-04
DAV:   9    -0.642374512932E+02   -0.63420E-07   -0.13669E-07  5292   0.253E-03    0.225E-04
DAV:  10    -0.642374512898E+02    0.34631E-08   -0.76961E-09  3496   0.659E-04
  14 F= -.64237451E+02 E0= -.64222323E+02  d E =-.527030E-02
 curvature:  -6.69 expect dE=-0.260E-01 dE for cont linesearch -0.807E-03
 ZBRENT: increasing intervall
 opt :   1.2971  next Energy=   -64.238390 (dE=-0.621E-02)
 bond charge predicted
       N       E                     dE             d eps       ncg     rms          rms(c)
DAV:   1    -0.643870388829E+02   -0.14959E+00   -0.58298E+00  4480   0.158E+01    0.163E+00
DAV:   2    -0.642756193803E+02    0.11142E+00   -0.15923E-01  4948   0.248E+00    0.812E-01
DAV:   3    -0.642395806736E+02    0.36039E-01   -0.10972E-01  5108   0.181E+00    0.221E-01
DAV:   4    -0.642382593218E+02    0.13214E-02   -0.62416E-03  5180   0.493E-01    0.782E-02
DAV:   5    -0.642380571708E+02    0.20215E-03   -0.11610E-03  5256   0.206E-01    0.455E-02
DAV:   6    -0.642380766916E+02   -0.19521E-04   -0.19380E-04  5116   0.858E-02    0.110E-02
DAV:   7    -0.642380759173E+02    0.77425E-06   -0.14534E-05  5372   0.257E-02    0.433E-03
DAV:   8    -0.642380771107E+02   -0.11933E-05   -0.26655E-06  5608   0.106E-02    0.182E-03
DAV:   9    -0.642380773622E+02   -0.25155E-06   -0.49860E-07  5388   0.473E-03    0.437E-04
DAV:  10    -0.642380773607E+02    0.15423E-08   -0.31391E-08  4752   0.129E-03
  15 F= -.64238077E+02 E0= -.64222856E+02  d E =-.589637E-02
 curvature:  -7.78 expect dE=-0.193E-01 dE for cont linesearch -0.420E-03
 ZBRENT: bracketing found
 ZBRENT: interpolating
 opt :   1.0258  next Energy=   -64.238540 (dE=-0.636E-02)
 bond charge predicted
       N       E                     dE             d eps       ncg     rms          rms(c)
DAV:   1    -0.642634590398E+02   -0.25382E-01   -0.94948E-01  4480   0.629E+00    0.649E-01
DAV:   2    -0.642449785413E+02    0.18480E-01   -0.25540E-02  4928   0.100E+00    0.330E-01
DAV:   3    -0.642387890786E+02    0.61895E-02   -0.19410E-02  5100   0.757E-01    0.907E-02
DAV:   4    -0.642385829355E+02    0.20614E-03   -0.11744E-03  5160   0.213E-01    0.331E-02
DAV:   5    -0.642385391237E+02    0.43812E-04   -0.24881E-04  5232   0.939E-02    0.200E-02
DAV:   6    -0.642385418845E+02   -0.27608E-05   -0.43945E-05  5072   0.401E-02    0.522E-03
DAV:   7    -0.642385416074E+02    0.27710E-06   -0.29423E-06  5288   0.116E-02    0.221E-03
DAV:   8    -0.642385418323E+02   -0.22486E-06   -0.59921E-07  5684   0.488E-03    0.836E-04
DAV:   9    -0.642385419242E+02   -0.91910E-07   -0.92305E-08  5236   0.209E-03    0.201E-04
DAV:  10    -0.642385419344E+02   -0.10176E-07   -0.54741E-09  3468   0.555E-04    0.912E-05
DAV:  11    -0.642385419413E+02   -0.69367E-08   -0.14558E-09  3108   0.293E-04
  16 F= -.64238542E+02 E0= -.64223380E+02  d E =-.636095E-02
 curvature:  -8.57 expect dE=-0.190E-01 dE for cont linesearch -0.723E-06
 trial: gam=-0.05778 g(F)=  0.777E-03 g(S)=  0.144E-02 ort = 0.135E-03 (trialstep = 0.228E+00)
 search vector abs. value=  0.292E-02
 bond charge predicted
       N       E                     dE             d eps       ncg     rms          rms(c)
DAV:   1    -0.642390154597E+02   -0.47353E-03   -0.10589E-02  4540   0.746E-01    0.500E-02
DAV:   2    -0.642389342010E+02    0.81259E-04   -0.26361E-04  5248   0.117E-01    0.256E-02
DAV:   3    -0.642389108900E+02    0.23311E-04   -0.65488E-05  5260   0.477E-02    0.979E-03
DAV:   4    -0.642389083095E+02    0.25805E-05   -0.13821E-05  5288   0.219E-02    0.384E-03
DAV:   5    -0.642389079045E+02    0.40498E-06   -0.28481E-06  5284   0.106E-02    0.120E-03
DAV:   6    -0.642389079400E+02   -0.35506E-07   -0.32272E-07  5256   0.406E-03    0.643E-04
DAV:   7    -0.642389079427E+02   -0.26678E-08   -0.14815E-08  3508   0.917E-04
  17 F= -.64238908E+02 E0= -.64223743E+02  d E =-.366001E-03
 trial-energy change:   -0.000366  1 .order   -0.000363   -0.000502   -0.000223
 step:   0.3902(harm=  0.4099)  dis= 0.00106  next Energy=   -64.238989 (dE=-0.447E-03)
 bond charge predicted
       N       E                     dE             d eps       ncg     rms          rms(c)
DAV:   1    -0.642390523256E+02   -0.14439E-03   -0.53947E-03  4560   0.533E-01    0.357E-02
DAV:   2    -0.642390109588E+02    0.41367E-04   -0.13487E-04  5248   0.839E-02    0.182E-02
DAV:   3    -0.642389992882E+02    0.11671E-04   -0.33540E-05  5288   0.341E-02    0.700E-03
DAV:   4    -0.642389980409E+02    0.12473E-05   -0.71112E-06  5288   0.157E-02    0.276E-03
DAV:   5    -0.642389978587E+02    0.18222E-06   -0.14742E-06  5280   0.765E-03    0.859E-04
DAV:   6    -0.642389978765E+02   -0.17800E-07   -0.16702E-07  5252   0.292E-03    0.461E-04
DAV:   7    -0.642389978781E+02   -0.15505E-08   -0.75745E-09  3368   0.657E-04
  18 F= -.64238998E+02 E0= -.64223830E+02  d E =-.455937E-03
 curvature:  -0.27 expect dE=-0.838E-04 dE for cont linesearch -0.966E-06
 ZBRENT: extrapolating
 opt :   0.4092  next Energy=   -64.238999 (dE=-0.457E-03)
 bond charge predicted
       N       E                     dE             d eps       ncg     rms          rms(c)
DAV:   1    -0.642389996323E+02   -0.17558E-05   -0.73916E-05  4620   0.623E-02    0.418E-03
DAV:   2    -0.642389991450E+02    0.48727E-06   -0.18761E-06  5248   0.991E-03    0.213E-03
DAV:   3    -0.642389990628E+02    0.82260E-07   -0.46888E-07  5308   0.404E-03    0.823E-04
DAV:   4    -0.642389990699E+02   -0.71705E-08   -0.10186E-07  5280   0.188E-03    0.332E-04
DAV:   5    -0.642389990774E+02   -0.74481E-08   -0.19422E-08  3184   0.925E-04
  19 F= -.64238999E+02 E0= -.64223831E+02  d E =-.457136E-03
 curvature:  -0.27 expect dE=-0.910E-04 dE for cont linesearch -0.263E-10
 trial: gam= 0.14663 g(F)=  0.303E-03 g(S)=  0.337E-04 ort = 0.533E-06 (trialstep = 0.264E+00)
 search vector abs. value=  0.400E-03
 bond charge predicted
       N       E                     dE             d eps       ncg     rms          rms(c)
DAV:   1    -0.642390533564E+02   -0.54286E-04   -0.22563E-03  4532   0.372E-01    0.132E-02
DAV:   2    -0.642390539408E+02   -0.58445E-06   -0.44989E-05  5580   0.492E-02    0.788E-03
DAV:   3    -0.642390526747E+02    0.12661E-05   -0.39295E-06  5296   0.141E-02    0.249E-03
DAV:   4    -0.642390527022E+02   -0.27497E-07   -0.61538E-07  5520   0.522E-03    0.965E-04
DAV:   5    -0.642390527186E+02   -0.16410E-07   -0.56863E-08  5272   0.169E-03    0.406E-04
DAV:   6    -0.642390527300E+02   -0.11371E-07   -0.77732E-09  3268   0.647E-04    0.101E-04
DAV:   7    -0.642390527304E+02   -0.33492E-09   -0.16945E-09  3020   0.291E-04
  20 F= -.64239053E+02 E0= -.64223893E+02  d E =-.536530E-04
 trial-energy change:   -0.000054  1 .order   -0.000053   -0.000089   -0.000017
 step:   0.3253(harm=  0.3282)  dis= 0.00049  next Energy=   -64.239055 (dE=-0.557E-04)
 bond charge predicted
       N       E                     dE             d eps       ncg     rms          rms(c)
DAV:   1    -0.642390548778E+02   -0.21478E-05   -0.12135E-04  4592   0.863E-02    0.305E-03
DAV:   2    -0.642390549425E+02   -0.64617E-07   -0.24190E-06  5592   0.114E-02    0.182E-03
DAV:   3    -0.642390549112E+02    0.31241E-07   -0.21110E-07  5320   0.328E-03    0.576E-04
DAV:   4    -0.642390549281E+02   -0.16936E-07   -0.32262E-08  4284   0.121E-03    0.219E-04
DAV:   5    -0.642390549333E+02   -0.52005E-08   -0.30568E-09  3032   0.417E-04
  21 F= -.64239055E+02 E0= -.64223897E+02  d E =-.558560E-04
 curvature:  -0.19 expect dE=-0.257E-04 dE for cont linesearch -0.373E-08
 trial: gam= 0.38540 g(F)=  0.115E-03 g(S)=  0.176E-04 ort = 0.277E-05 (trialstep = 0.276E+00)
 search vector abs. value=  0.194E-03
 bond charge predicted
       N       E                     dE             d eps       ncg     rms          rms(c)
DAV:   1    -0.642390839608E+02   -0.29033E-04   -0.12085E-03  4484   0.276E-01    0.935E-03
DAV:   2    -0.642390837820E+02    0.17880E-06   -0.22676E-05  5588   0.337E-02    0.561E-03
DAV:   3    -0.642390835752E+02    0.20680E-06   -0.12152E-06  5320   0.826E-03    0.315E-03
DAV:   4    -0.642390834683E+02    0.10697E-06   -0.23578E-07  5404   0.338E-03    0.674E-04
DAV:   5    -0.642390834578E+02    0.10472E-07   -0.32499E-08  4320   0.130E-03    0.209E-04
DAV:   6    -0.642390834582E+02   -0.35152E-09   -0.59083E-09  3144   0.569E-04
  22 F= -.64239083E+02 E0= -.64223931E+02  d E =-.285248E-04
 trial-energy change:   -0.000029  1 .order   -0.000029   -0.000037   -0.000020
 step:   0.6440(harm=  0.6166)  dis= 0.00101  next Energy=   -64.239097 (dE=-0.419E-04)
 bond charge predicted
       N       E                     dE             d eps       ncg     rms          rms(c)
DAV:   1    -0.642390966795E+02   -0.13222E-04   -0.21420E-03  4484   0.368E-01    0.125E-02
DAV:   2    -0.642390963881E+02    0.29144E-06   -0.40237E-05  5588   0.449E-02    0.747E-03
DAV:   3    -0.642390960341E+02    0.35401E-06   -0.21536E-06  5328   0.110E-02    0.420E-03
DAV:   4    -0.642390958598E+02    0.17426E-06   -0.41833E-07  5396   0.451E-03    0.897E-04
DAV:   5    -0.642390958449E+02    0.14906E-07   -0.58811E-08  4852   0.174E-03    0.277E-04
DAV:   6    -0.642390958452E+02   -0.29286E-09   -0.88114E-09  3256   0.711E-04
  23 F= -.64239096E+02 E0= -.64223950E+02  d E =-.409119E-04
 curvature:  -0.45 expect dE=-0.474E-04 dE for cont linesearch -0.768E-07
 trial: gam= 0.86277 g(F)=  0.792E-04 g(S)=  0.273E-04 ort =-0.579E-05 (trialstep = 0.282E+00)
 search vector abs. value=  0.241E-03
 bond charge predicted
       N       E                     dE             d eps       ncg     rms          rms(c)
DAV:   1    -0.642391181253E+02   -0.22280E-04   -0.13510E-03  4480   0.292E-01    0.829E-03
DAV:   2    -0.642391185355E+02   -0.41013E-06   -0.14326E-05  5512   0.256E-02    0.537E-03
DAV:   3    -0.642391183146E+02    0.22089E-06   -0.69437E-07  5280   0.627E-03    0.273E-03
DAV:   4    -0.642391181931E+02    0.12151E-06   -0.11798E-07  5360   0.238E-03    0.517E-04
DAV:   5    -0.642391181780E+02    0.15050E-07   -0.10677E-08  3396   0.777E-04    0.160E-04
DAV:   6    -0.642391181776E+02    0.39904E-09   -0.35116E-09  3168   0.416E-04
  24 F= -.64239118E+02 E0= -.64223970E+02  d E =-.223324E-04
 trial-energy change:   -0.000022  1 .order   -0.000023   -0.000029   -0.000017
 step:   0.6819(harm=  0.6819)  dis= 0.00096  next Energy=   -64.239130 (dE=-0.346E-04)
 bond charge predicted
       N       E                     dE             d eps       ncg     rms          rms(c)
DAV:   1    -0.642391292697E+02   -0.11092E-04   -0.27296E-03  4480   0.415E-01    0.118E-02
DAV:   2    -0.642391301905E+02   -0.92074E-06   -0.28987E-05  5512   0.364E-02    0.763E-03
DAV:   3    -0.642391298119E+02    0.37854E-06   -0.14081E-06  5280   0.892E-03    0.389E-03
DAV:   4    -0.642391296223E+02    0.18959E-06   -0.23955E-07  5368   0.339E-03    0.737E-04
DAV:   5    -0.642391296010E+02    0.21360E-07   -0.23549E-08  4348   0.111E-03    0.232E-04
DAV:   6    -0.642391295999E+02    0.10607E-08   -0.48263E-09  3364   0.488E-04
  25 F= -.64239130E+02 E0= -.64223978E+02  d E =-.337547E-04
 curvature:  -0.81 expect dE=-0.632E-04 dE for cont linesearch -0.489E-14
 trial: gam= 0.63576 g(F)=  0.183E-04 g(S)=  0.599E-04 ort = 0.121E-08 (trialstep = 0.362E+00)
 search vector abs. value=  0.176E-03
 bond charge predicted
       N       E                     dE             d eps       ncg     rms          rms(c)
DAV:   1    -0.642391508372E+02   -0.21236E-04   -0.13940E-03  4480   0.295E-01    0.105E-02
DAV:   2    -0.642391501005E+02    0.73666E-06   -0.19607E-05  5516   0.306E-02    0.636E-03
DAV:   3    -0.642391498983E+02    0.20223E-06   -0.13822E-06  5456   0.838E-03    0.283E-03
DAV:   4    -0.642391499339E+02   -0.35584E-07   -0.25000E-07  5316   0.312E-03    0.699E-04
DAV:   5    -0.642391499582E+02   -0.24300E-07   -0.14617E-08  3364   0.913E-04    0.319E-04
DAV:   6    -0.642391499737E+02   -0.15558E-07   -0.56704E-09  2964   0.521E-04    0.101E-04
DAV:   7    -0.642391499779E+02   -0.41514E-08   -0.88502E-10  2752   0.250E-04
  26 F= -.64239150E+02 E0= -.64224001E+02  d E =-.203780E-04
 trial-energy change:   -0.000020  1 .order   -0.000020   -0.000028   -0.000012
 step:   0.5801(harm=  0.6224)  dis= 0.00067  next Energy=   -64.239154 (dE=-0.240E-04)
 bond charge predicted
       N       E                     dE             d eps       ncg     rms          rms(c)
DAV:   1    -0.642391545563E+02   -0.45826E-05   -0.50850E-04  4480   0.178E-01    0.634E-03
DAV:   2    -0.642391543300E+02    0.22637E-06   -0.71581E-06  5516   0.185E-02    0.384E-03
DAV:   3    -0.642391542806E+02    0.49359E-07   -0.50365E-07  5448   0.506E-03    0.171E-03
DAV:   4    -0.642391543128E+02   -0.32156E-07   -0.91114E-08  5308   0.188E-03    0.423E-04
DAV:   5    -0.642391543281E+02   -0.15312E-07   -0.53277E-09  3156   0.552E-04    0.193E-04
DAV:   6    -0.642391543370E+02   -0.89512E-08   -0.20731E-09  2728   0.315E-04
  27 F= -.64239154E+02 E0= -.64224006E+02  d E =-.247371E-04
 curvature:  -0.68 expect dE=-0.523E-05 dE for cont linesearch -0.109E-06
 ZBRENT: extrapolating
 opt :   0.6222  next Energy=   -64.239154 (dE=-0.248E-04)
 bond charge predicted
       N       E                     dE             d eps       ncg     rms          rms(c)
DAV:   1    -0.642391544624E+02   -0.13428E-06   -0.18943E-05  4552   0.344E-02    0.122E-03
DAV:   2    -0.642391544705E+02   -0.81827E-08   -0.26834E-07  5516   0.359E-03    0.740E-04
DAV:   3    -0.642391544782E+02   -0.76088E-08   -0.17294E-08  3584   0.978E-04
  28 F= -.64239154E+02 E0= -.64224006E+02  d E =-.248782E-04
 curvature:  -0.70 expect dE=-0.608E-05 dE for cont linesearch -0.998E-10
 trial: gam= 0.13274 g(F)=  0.731E-05 g(S)=  0.139E-05 ort = 0.158E-06 (trialstep = 0.414E+00)
 search vector abs. value=  0.118E-04
 bond charge predicted
       N       E                     dE             d eps       ncg     rms          rms(c)
DAV:   1    -0.642391574153E+02   -0.29447E-05   -0.15583E-04  4480   0.973E-02    0.319E-03
DAV:   2    -0.642391573266E+02    0.88699E-07   -0.23876E-06  5416   0.111E-02    0.199E-03
DAV:   3    -0.642391572200E+02    0.10657E-06   -0.32836E-07  5328   0.389E-03    0.672E-04
DAV:   4    -0.642391572187E+02    0.12985E-08   -0.39340E-08  4420   0.143E-03
  29 F= -.64239157E+02 E0= -.64224009E+02  d E =-.274056E-05
 trial-energy change:   -0.000003  1 .order   -0.000003   -0.000004   -0.000002
 step:   0.9255(harm=  0.9255)  dis= 0.00026  next Energy=   -64.239159 (dE=-0.404E-05)
 bond charge predicted
       N       E                     dE             d eps       ncg     rms          rms(c)
DAV:   1    -0.642391586279E+02   -0.14079E-05   -0.23807E-04  4480   0.120E-01    0.395E-03
DAV:   2    -0.642391585041E+02    0.12379E-06   -0.36305E-06  5416   0.137E-02    0.246E-03
DAV:   3    -0.642391583447E+02    0.15940E-06   -0.49840E-07  5320   0.481E-03    0.840E-04
DAV:   4    -0.642391583406E+02    0.41096E-08   -0.61551E-08  4884   0.178E-03
  30 F= -.64239158E+02 E0= -.64224009E+02  d E =-.386248E-05
 curvature:  -0.63 expect dE=-0.742E-05 dE for cont linesearch -0.334E-10
 trial: gam= 1.36264 g(F)=  0.102E-04 g(S)=  0.165E-05 ort =-0.251E-07 (trialstep = 0.181E+00)
 search vector abs. value=  0.337E-04
 bond charge predicted
       N       E                     dE             d eps       ncg     rms          rms(c)
DAV:   1    -0.642391600016E+02   -0.16569E-05   -0.10053E-04  4588   0.780E-02    0.290E-03
DAV:   2    -0.642391599023E+02    0.99361E-07   -0.18971E-06  5632   0.974E-03    0.169E-03
DAV:   3    -0.642391598387E+02    0.63549E-07   -0.16541E-07  5320   0.280E-03    0.768E-04
DAV:   4    -0.642391598319E+02    0.68551E-08   -0.28145E-08  3832   0.115E-03
  31 F= -.64239160E+02 E0= -.64224011E+02  d E =-.149123E-05
 trial-energy change:   -0.000001  1 .order   -0.000002   -0.000002   -0.000001
 step:   0.3225(harm=  0.3225)  dis= 0.00016  next Energy=   -64.239160 (dE=-0.190E-05)
 bond charge predicted
       N       E                     dE             d eps       ncg     rms          rms(c)
DAV:   1    -0.642391602725E+02   -0.43374E-06   -0.61189E-05  4604   0.608E-02    0.225E-03
DAV:   2    -0.642391602116E+02    0.60829E-07   -0.11438E-06  5644   0.755E-03    0.131E-03
DAV:   3    -0.642391601734E+02    0.38188E-07   -0.98155E-08  5296   0.215E-03    0.601E-04
DAV:   4    -0.642391601694E+02    0.40704E-08   -0.16409E-08  3424   0.881E-04
  32 F= -.64239160E+02 E0= -.64224012E+02  d E =-.182874E-05
 curvature:  -0.46 expect dE=-0.903E-06 dE for cont linesearch -0.394E-12
 trial: gam= 0.15061 g(F)=  0.128E-05 g(S)=  0.679E-06 ort = 0.536E-08 (trialstep = 0.209E+00)
 search vector abs. value=  0.272E-05
 bond charge predicted
       N       E                     dE             d eps       ncg     rms          rms(c)
DAV:   1    -0.642391605376E+02   -0.36414E-06   -0.90333E-06  4600   0.229E-02    0.118E-03
DAV:   2    -0.642391604958E+02    0.41819E-07   -0.19900E-07  5380   0.312E-03    0.669E-04
DAV:   3    -0.642391604829E+02    0.12817E-07   -0.56450E-08  5268   0.143E-03    0.161E-04
DAV:   4    -0.642391604861E+02   -0.31669E-08   -0.32415E-09  2892   0.421E-04
  33 F= -.64239160E+02 E0= -.64224012E+02  d E =-.316737E-06
 trial-energy change:   -0.000000  1 .order   -0.000000   -0.000000   -0.000000
 step:   0.5007(harm=  0.5007)  dis= 0.00006  next Energy=   -64.239161 (dE=-0.490E-06)
 bond charge predicted
       N       E                     dE             d eps       ncg     rms          rms(c)
DAV:   1    -0.642391607625E+02   -0.27959E-06   -0.17654E-05  4568   0.320E-02    0.168E-03
DAV:   2    -0.642391606798E+02    0.82738E-07   -0.38611E-07  5388   0.435E-03    0.948E-04
DAV:   3    -0.642391606509E+02    0.28871E-07   -0.11739E-07  5288   0.205E-03    0.227E-04
DAV:   4    -0.642391606553E+02   -0.43601E-08   -0.65824E-09  3100   0.601E-04
  34 F= -.64239161E+02 E0= -.64224013E+02  d E =-.485910E-06
 curvature:  -0.35 expect dE=-0.405E-06 dE for cont linesearch -0.409E-09
 trial: gam= 0.56944 g(F)=  0.580E-06 g(S)=  0.584E-06 ort = 0.566E-07 (trialstep = 0.268E+00)
 search vector abs. value=  0.211E-05
 bond charge predicted
       N       E                     dE             d eps       ncg     rms          rms(c)
DAV:   1    -0.642391611403E+02   -0.48941E-06   -0.90075E-06  4480   0.204E-02    0.192E-03
DAV:   2    -0.642391609635E+02    0.17682E-06   -0.31115E-07  5288   0.373E-03    0.943E-04
DAV:   3    -0.642391609258E+02    0.37702E-07   -0.14558E-07  5304   0.215E-03    0.313E-04
DAV:   4    -0.642391609295E+02   -0.36782E-08   -0.11610E-08  3144   0.730E-04
  35 F= -.64239161E+02 E0= -.64224013E+02  d E =-.274207E-06
 ZBRENT: can't locate minimum, use default step
 trial-energy change:   -0.000000  1 .order   -0.000000   -0.000000   -0.000000
 step:   1.0706(harm=  2.1714)  dis= 0.00005  next Energy=   -64.239162 (dE=-0.130E-05)
 bond charge predicted
       N       E                     dE             d eps       ncg     rms          rms(c)
DAV:   1    -0.642391632845E+02   -0.23587E-05   -0.80920E-05  4480   0.611E-02    0.576E-03
DAV:   2    -0.642391617987E+02    0.14858E-05   -0.27880E-06  5292   0.111E-02    0.282E-03
DAV:   3    -0.642391614316E+02    0.36712E-06   -0.12866E-06  5300   0.639E-03    0.941E-04
DAV:   4    -0.642391614243E+02    0.72926E-08   -0.11547E-07  5380   0.217E-03    0.396E-04
DAV:   5    -0.642391614251E+02   -0.76739E-09   -0.23825E-08  3436   0.101E-03
  36 F= -.64239161E+02 E0= -.64224013E+02  d E =-.769802E-06
 curvature:  -1.28 expect dE=-0.158E-05 dE for cont linesearch -0.975E-07
 trial: gam= 0.00000 g(F)=  0.449E-06 g(S)=  0.786E-06 ort = 0.402E-06 (trialstep = 0.428E+00)
 search vector abs. value=  0.124E-05
 bond charge predicted
       N       E                     dE             d eps       ncg     rms          rms(c)
DAV:   1    -0.642391618845E+02   -0.46016E-06   -0.16606E-05  4512   0.303E-02    0.173E-03
DAV:   2    -0.642391617868E+02    0.97689E-07   -0.50905E-07  5336   0.499E-03    0.954E-04
DAV:   3    -0.642391617624E+02    0.24429E-07   -0.80307E-08  5284   0.179E-03    0.410E-04
DAV:   4    -0.642391617651E+02   -0.26944E-08   -0.13296E-08  3160   0.742E-04
  37 F= -.64239162E+02 E0= -.64224014E+02  d E =-.339966E-06
 trial-energy change:   -0.000000  1 .order   -0.000000   -0.000001   -0.000000
 step:   0.5920(harm=  0.5920)  dis= 0.00004  next Energy=   -64.239162 (dE=-0.366E-06)
 bond charge predicted
       N       E                     dE             d eps       ncg     rms          rms(c)
DAV:   1    -0.642391618060E+02   -0.43619E-07   -0.23791E-06  4648   0.115E-02    0.670E-04
DAV:   2    -0.642391617928E+02    0.13184E-07   -0.71174E-08  5320   0.186E-03    0.365E-04
DAV:   3    -0.642391617903E+02    0.24661E-08   -0.10249E-08  3092   0.679E-04
  38 F= -.64239162E+02 E0= -.64224014E+02  d E =-.365240E-06
 curvature:  -0.30 expect dE=-0.347E-06 dE for cont linesearch -0.151E-10
 trial: gam= 0.95520 g(F)=  0.668E-06 g(S)=  0.504E-06 ort =-0.794E-08 (trialstep = 0.249E+00)
 search vector abs. value=  0.228E-05
 bond charge predicted
       N       E                     dE             d eps       ncg     rms          rms(c)
DAV:   1    -0.642391621484E+02   -0.35563E-06   -0.85430E-06  4480   0.211E-02    0.153E-03
DAV:   2    -0.642391620425E+02    0.10597E-06   -0.17351E-07  5328   0.274E-03    0.813E-04
DAV:   3    -0.642391620071E+02    0.35328E-07   -0.11015E-07  5208   0.182E-03    0.213E-04
DAV:   4    -0.642391620111E+02   -0.40204E-08   -0.40598E-09  2860   0.451E-04
  39 F= -.64239162E+02 E0= -.64224014E+02  d E =-.220816E-06
 trial-energy change:   -0.000000  1 .order   -0.000000   -0.000000   -0.000000
 step:   0.8193(harm=  0.8193)  dis= 0.00004  next Energy=   -64.239162 (dE=-0.477E-06)
 bond charge predicted
       N       E                     dE             d eps       ncg     rms          rms(c)
DAV:   1    -0.642391628989E+02   -0.89174E-06   -0.45093E-05  4480   0.484E-02    0.348E-03
DAV:   2    -0.642391623947E+02    0.50421E-06   -0.90768E-07  5344   0.629E-03    0.185E-03
DAV:   3    -0.642391622062E+02    0.18844E-06   -0.57068E-07  5240   0.414E-03    0.491E-04
DAV:   4    -0.642391622125E+02   -0.62726E-08   -0.21936E-08  3776   0.104E-03
  40 F= -.64239162E+02 E0= -.64224013E+02  d E =-.422160E-06
 curvature:  -0.80 expect dE=-0.125E-05 dE for cont linesearch -0.556E-08
 trial: gam= 1.16146 g(F)=  0.841E-06 g(S)=  0.720E-06 ort = 0.126E-06 (trialstep = 0.168E+00)
 search vector abs. value=  0.494E-05
 bond charge predicted
       N       E                     dE             d eps       ncg     rms          rms(c)
DAV:   1    -0.642391626301E+02   -0.42384E-06   -0.89978E-06  4480   0.207E-02    0.176E-03
DAV:   2    -0.642391624764E+02    0.15370E-06   -0.24720E-07  5344   0.327E-03    0.909E-04
DAV:   3    -0.642391624329E+02    0.43487E-07   -0.14528E-07  5276   0.212E-03    0.258E-04
DAV:   4    -0.642391624377E+02   -0.47989E-08   -0.77952E-09  3020   0.599E-04
  41 F= -.64239162E+02 E0= -.64224013E+02  d E =-.225179E-06
 ZBRENT: can't locate minimum, use default step
 trial-energy change:   -0.000000  1 .order   -0.000000   -0.000000   -0.000000
 step:   0.6727(harm=  0.8279)  dis= 0.00006  next Energy=   -64.239163 (dE=-0.707E-06)
 bond charge predicted
       N       E                     dE             d eps       ncg     rms          rms(c)
DAV:   1    -0.642391643750E+02   -0.19421E-05   -0.81191E-05  4480   0.621E-02    0.526E-03
DAV:   2    -0.642391631591E+02    0.12159E-05   -0.21722E-06  5328   0.964E-03    0.272E-03
DAV:   3    -0.642391627622E+02    0.39690E-06   -0.12779E-06  5244   0.626E-03    0.743E-04
DAV:   4    -0.642391627670E+02   -0.48638E-08   -0.71924E-08  5340   0.173E-03
  42 F= -.64239163E+02 E0= -.64224013E+02  d E =-.554533E-06
 curvature:  -1.13 expect dE=-0.239E-05 dE for cont linesearch -0.767E-07
 trial: gam= 0.00000 g(F)=  0.115E-05 g(S)=  0.960E-06 ort = 0.579E-06 (trialstep = 0.269E+00)
 search vector abs. value=  0.211E-05
 bond charge predicted
       N       E                     dE             d eps       ncg     rms          rms(c)
DAV:   1    -0.642391631050E+02   -0.34280E-06   -0.12559E-05  4816   0.272E-02    0.130E-03
DAV:   2    -0.642391631020E+02    0.29638E-08   -0.41655E-07  5424   0.445E-03    0.751E-04
DAV:   3    -0.642391631041E+02   -0.20732E-08   -0.31403E-08  4644   0.126E-03
  43 F= -.64239163E+02 E0= -.64224014E+02  d E =-.337041E-06
 trial-energy change:   -0.000000  1 .order   -0.000000   -0.000001   -0.000000
 step:   0.3106(harm=  0.3106)  dis= 0.00003  next Energy=   -64.239163 (dE=-0.328E-06)
 bond charge predicted
       N       E                     dE             d eps       ncg     rms          rms(c)
DAV:   1    -0.642391631152E+02   -0.13204E-07   -0.28050E-07  5092   0.406E-03    0.270E-04
DAV:   2    -0.642391631192E+02   -0.39611E-08   -0.74563E-09  2668   0.645E-04
  44 F= -.64239163E+02 E0= -.64224014E+02  d E =-.352133E-06
 curvature:  -0.16 expect dE=-0.129E-06 dE for cont linesearch -0.170E-10
 trial: gam= 0.40088 g(F)=  0.502E-06 g(S)=  0.330E-06 ort =-0.152E-07 (trialstep = 0.277E+00)
 search vector abs. value=  0.116E-05
 bond charge predicted
       N       E                     dE             d eps       ncg     rms          rms(c)
DAV:   1    -0.642391633647E+02   -0.24948E-06   -0.49339E-06  4488   0.163E-02    0.127E-03
DAV:   2    -0.642391632996E+02    0.65025E-07   -0.17065E-07  5372   0.277E-03    0.614E-04
DAV:   3    -0.642391632930E+02    0.66425E-08   -0.48967E-08  5160   0.129E-03
  45 F= -.64239163E+02 E0= -.64224014E+02  d E =-.173850E-06
 trial-energy change:   -0.000000  1 .order   -0.000000   -0.000000   -0.000000
 step:   0.6919(harm=  0.6919)  dis= 0.00003  next Energy=   -64.239163 (dE=-0.286E-06)
 bond charge predicted
       N       E                     dE             d eps       ncg     rms          rms(c)
DAV:   1    -0.642391635543E+02   -0.25464E-06   -0.11078E-05  4520   0.244E-02    0.192E-03
DAV:   2    -0.642391634051E+02    0.14921E-06   -0.38809E-07  5364   0.420E-03    0.927E-04
DAV:   3    -0.642391633827E+02    0.22411E-07   -0.11355E-07  5292   0.197E-03    0.281E-04
DAV:   4    -0.642391633895E+02   -0.68021E-08   -0.76236E-09  3224   0.603E-04
  46 F= -.64239163E+02 E0= -.64224014E+02  d E =-.270310E-06
 curvature:  -0.49 expect dE=-0.406E-06 dE for cont linesearch -0.180E-11
 trial: gam= 1.04438 g(F)=  0.442E-06 g(S)=  0.394E-06 ort =-0.208E-08 (trialstep = 0.199E+00)
 search vector abs. value=  0.210E-05
 bond charge predicted
       N       E                     dE             d eps       ncg     rms          rms(c)
DAV:   1    -0.642391636349E+02   -0.25228E-06   -0.54000E-06  4496   0.161E-02    0.140E-03
DAV:   2    -0.642391635346E+02    0.10033E-06   -0.16169E-07  5320   0.267E-03    0.695E-04
DAV:   3    -0.642391635128E+02    0.21824E-07   -0.78156E-08  5204   0.157E-03    0.236E-04
DAV:   4    -0.642391635161E+02   -0.32801E-08   -0.60564E-09  2808   0.512E-04
  47 F= -.64239164E+02 E0= -.64224014E+02  d E =-.126599E-06
 ZBRENT: can't locate minimum, use default step
 trial-energy change:   -0.000000  1 .order   -0.000000   -0.000000   -0.000000
 step:   0.7971(harm=  0.9196)  dis= 0.00006  next Energy=   -64.239164 (dE=-0.383E-06)
 bond charge predicted
       N       E                     dE             d eps       ncg     rms          rms(c)
DAV:   1    -0.642391646856E+02   -0.11729E-05   -0.49064E-05  4480   0.486E-02    0.419E-03
DAV:   2    -0.642391638798E+02    0.80587E-06   -0.14507E-06  5312   0.800E-03    0.209E-03
DAV:   3    -0.642391636678E+02    0.21194E-06   -0.70171E-07  5280   0.469E-03    0.697E-04
DAV:   4    -0.642391636685E+02   -0.65779E-09   -0.59850E-08  5356   0.152E-03
  48 F= -.64239164E+02 E0= -.64224013E+02  d E =-.279019E-06
 curvature:  -1.12 expect dE=-0.120E-05 dE for cont linesearch -0.406E-07
 trial: gam= 0.00000 g(F)=  0.308E-06 g(S)=  0.763E-06 ort = 0.275E-06 (trialstep = 0.319E+00)
 search vector abs. value=  0.107E-05
 bond charge predicted
       N       E                     dE             d eps       ncg     rms          rms(c)
DAV:   1    -0.642391639667E+02   -0.29885E-06   -0.74202E-06  4532   0.201E-02    0.131E-03
DAV:   2    -0.642391639063E+02    0.60389E-07   -0.28266E-07  5272   0.378E-03    0.663E-04
DAV:   3    -0.642391638943E+02    0.11971E-07   -0.45080E-08  5196   0.133E-03    0.327E-04
DAV:   4    -0.642391638951E+02   -0.82491E-09   -0.97077E-09  2732   0.615E-04
  49 F= -.64239164E+02 E0= -.64224014E+02  d E =-.226661E-06
 trial-energy change:   -0.000000  1 .order   -0.000000   -0.000000   -0.000000
 step:   0.5148(harm=  0.5148)  dis= 0.00002  next Energy=   -64.239164 (dE=-0.276E-06)
 bond charge predicted
       N       E                     dE             d eps       ncg     rms          rms(c)
DAV:   1    -0.642391639579E+02   -0.63599E-07   -0.27666E-06  4588   0.123E-02    0.821E-04
DAV:   2    -0.642391639341E+02    0.23828E-07   -0.10375E-07  5312   0.227E-03    0.417E-04
DAV:   3    -0.642391639296E+02    0.44631E-08   -0.14853E-08  3148   0.810E-04
  50 F= -.64239164E+02 E0= -.64224014E+02  d E =-.261144E-06
 curvature:  -0.26 expect dE=-0.153E-06 dE for cont linesearch -0.126E-11
 trial: gam= 0.55346 g(F)=  0.357E-06 g(S)=  0.238E-06 ort = 0.229E-08 (trialstep = 0.358E+00)
 search vector abs. value=  0.926E-06
 bond charge predicted
       N       E                     dE             d eps       ncg     rms          rms(c)
DAV:   1    -0.642391641733E+02   -0.23918E-06   -0.69750E-06  4480   0.191E-02    0.136E-03
DAV:   2    -0.642391640839E+02    0.89394E-07   -0.13754E-07  5392   0.248E-03    0.735E-04
DAV:   3    -0.642391640503E+02    0.33555E-07   -0.94394E-08  5220   0.169E-03    0.199E-04
DAV:   4    -0.642391640534E+02   -0.31098E-08   -0.35400E-09  2876   0.433E-04
  51 F= -.64239164E+02 E0= -.64224014E+02  d E =-.123804E-06
 trial-energy change:   -0.000000  1 .order   -0.000000   -0.000000   -0.000000
 step:   0.6543(harm=  0.6543)  dis= 0.00002  next Energy=   -64.239164 (dE=-0.195E-06)
 bond charge predicted
       N       E                     dE             d eps       ncg     rms          rms(c)
DAV:   1    -0.642391641599E+02   -0.10953E-06   -0.48243E-06  4480   0.159E-02    0.111E-03
DAV:   2    -0.642391640968E+02    0.63078E-07   -0.94434E-08  5392   0.207E-03    0.603E-04
DAV:   3    -0.642391640736E+02    0.23196E-07   -0.64594E-08  5216   0.141E-03    0.170E-04
DAV:   4    -0.642391640761E+02   -0.24777E-08   -0.26387E-09  2776   0.372E-04
  52 F= -.64239164E+02 E0= -.64224014E+02  d E =-.146428E-06
 curvature:  -0.51 expect dE=-0.234E-06 dE for cont linesearch -0.435E-09
 trial: gam= 0.78394 g(F)=  0.213E-06 g(S)=  0.248E-06 ort = 0.282E-07 (trialstep = 0.360E+00)
 search vector abs. value=  0.107E-05
 bond charge predicted
       N       E                     dE             d eps       ncg     rms          rms(c)
DAV:   1    -0.642391643840E+02   -0.31044E-06   -0.89053E-06  4480   0.203E-02    0.178E-03
DAV:   2    -0.642391642319E+02    0.15215E-06   -0.25157E-07  5356   0.329E-03    0.916E-04
DAV:   3    -0.642391641884E+02    0.43462E-07   -0.14989E-07  5168   0.214E-03    0.244E-04
DAV:   4    -0.642391641934E+02   -0.49399E-08   -0.72330E-09  3060   0.590E-04
  53 F= -.64239164E+02 E0= -.64224014E+02  d E =-.117298E-06
 trial-energy change:   -0.000000  1 .order   -0.000000   -0.000000   -0.000000
 step:   1.1248(harm=  1.1248)  dis= 0.00003  next Energy=   -64.239164 (dE=-0.271E-06)
 bond charge predicted
       N       E                     dE             d eps       ncg     rms          rms(c)
DAV:   1    -0.642391650649E+02   -0.87646E-06   -0.40092E-05  4480   0.431E-02    0.377E-03
DAV:   2    -0.642391644270E+02    0.63783E-06   -0.11296E-06  5360   0.696E-03    0.195E-03
DAV:   3    -0.642391642250E+02    0.20206E-06   -0.67216E-07  5172   0.454E-03    0.515E-04
DAV:   4    -0.642391642322E+02   -0.72378E-08   -0.34477E-08  4704   0.124E-03
  54 F= -.64239164E+02 E0= -.64224013E+02  d E =-.156161E-06
 curvature:  -1.25 expect dE=-0.254E-05 dE for cont linesearch -0.758E-11
 trial: gam= 4.76472 g(F)=  0.165E-05 g(S)=  0.381E-06 ort = 0.255E-08 (trialstep = 0.208E-01)
 search vector abs. value=  0.264E-04
 bond charge predicted
       N       E                     dE             d eps       ncg     rms          rms(c)
DAV:   1    -0.642391642808E+02   -0.55814E-07   -0.55340E-07  4572   0.496E-03    0.505E-04
DAV:   2    -0.642391642656E+02    0.15177E-07   -0.16572E-08  3284   0.846E-04    0.256E-04
DAV:   3    -0.642391642660E+02   -0.37085E-09   -0.14553E-08  2748   0.710E-04
  55 F= -.64239164E+02 E0= -.64224013E+02  d E =-.337700E-07
 ZBRENT: can't locate minimum, use default step
 trial-energy change:   -0.000000  1 .order   -0.000000   -0.000000   -0.000000
 step:   0.0833(harm=  0.0933)  dis= 0.00001  next Energy=   -64.239164 (dE=-0.953E-07)
 bond charge predicted
       N       E                     dE             d eps       ncg     rms          rms(c)
DAV:   1    -0.642391644969E+02   -0.23129E-06   -0.55662E-06  4480   0.155E-02    0.158E-03
DAV:   2    -0.642391643751E+02    0.12178E-06   -0.16155E-07  5248   0.253E-03    0.791E-04
DAV:   3    -0.642391643466E+02    0.28567E-07   -0.10843E-07  5192   0.180E-03    0.216E-04
DAV:   4    -0.642391643517E+02   -0.51095E-08   -0.54116E-09  2776   0.494E-04
  56 F= -.64239164E+02 E0= -.64224013E+02  d E =-.119452E-06
 curvature:  -0.59 expect dE=-0.117E-05 dE for cont linesearch -0.579E-07
 trial: gam=-0.00942 g(F)=  0.168E-05 g(S)=  0.300E-06 ort = 0.161E-05 (trialstep = 0.333E-01)
 search vector abs. value=  0.195E-05
 bond charge predicted
       N       E                     dE             d eps       ncg     rms          rms(c)
DAV:   1    -0.642391644130E+02   -0.66415E-07   -0.27986E-07  4764   0.399E-03    0.150E-04
DAV:   2    -0.642391644161E+02   -0.31491E-08   -0.69121E-09  2364   0.616E-04
  57 F= -.64239164E+02 E0= -.64224013E+02  d E =-.644545E-07
 ZBRENT: can't locate minimum, use default step
 trial-energy change:   -0.000000  1 .order   -0.000000   -0.000000   -0.000000
 step:   0.1334(harm=  0.2146)  dis= 0.00001  next Energy=   -64.239165 (dE=-0.211E-06)
 bond charge predicted
       N       E                     dE             d eps       ncg     rms          rms(c)
DAV:   1    -0.642391645333E+02   -0.12031E-06   -0.24900E-06  5024   0.119E-02    0.477E-04
DAV:   2    -0.642391645422E+02   -0.88780E-08   -0.65651E-08  5384   0.181E-03
  58 F= -.64239165E+02 E0= -.64224014E+02  d E =-.190496E-06
 curvature:  -0.09 expect dE=-0.319E-07 dE for cont linesearch -0.243E-07
 trial: gam=-0.19538 g(F)=  0.208E-06 g(S)=  0.166E-06 ort = 0.746E-06 (trialstep = 0.533E-01)
 search vector abs. value=  0.157E-06
 reached required accuracy - stopping structural energy minimisation
 writing wavefunctions
Sun Mar  6 01:19:10 CST 2022
