Thu Dec 23 22:07:54 CST 2021
 running on   48 total cores
 distrk:  each k-point on   48 cores,    1 groups
 distr:  one band on   24 cores,    2 groups
 using from now: INCAR     
 vasp.5.3.5 31Mar14 (build Jan 11 2016 19:50:55) complex                        
  
 POSCAR found type information on POSCAR  Ga N  O  Zn
 POSCAR found :  4 types and       8 ions
 scaLAPACK will be used

 ----------------------------------------------------------------------------- 
|                                                                             |
|           W    W    AA    RRRRR   N    N  II  N    N   GGGG   !!!           |
|           W    W   A  A   R    R  NN   N  II  NN   N  G    G  !!!           |
|           W    W  A    A  R    R  N N  N  II  N N  N  G       !!!           |
|           W WW W  AAAAAA  RRRRR   N  N N  II  N  N N  G  GGG   !            |
|           WW  WW  A    A  R   R   N   NN  II  N   NN  G    G                |
|           W    W  A    A  R    R  N    N  II  N    N   GGGG   !!!           |
|                                                                             |
|      For optimal performance we recommend to set                            |
|        NCORE= 4 - approx SQRT( number of cores)                             |
|      NCORE specifies how many cores store one orbital (NPAR=cpu/NCORE).     |
|      This setting can  greatly improve the performance of VASP for DFT.     |
|      The default, NPAR=number of cores might be grossly inefficient         |
|      on modern multi-core architectures or massively parallel machines.     |
|      Do your own testing !!!!                                               |
|      Unfortunately you need to use the default for GW and RPA calculations. |
|      (for HF NCORE is supported but not extensively tested yet)             |
|                                                                             |
 ----------------------------------------------------------------------------- 

 LDA part: xc-table for Pade appr. of Perdew
 POSCAR, INCAR and KPOINTS ok, starting setup
 WARNING: small aliasing (wrap around) errors must be expected
 FFT: planning ...
 WAVECAR not read
 entering main loop
       N       E                     dE             d eps       ncg     rms          rms(c)
DAV:   1     0.903245536807E+03    0.90325E+03   -0.42228E+04 10232   0.331E+03
DAV:   2     0.145164124993E+03   -0.75808E+03   -0.72841E+03  9936   0.787E+02
DAV:   3    -0.282957610639E+02   -0.17346E+03   -0.16816E+03 11316   0.266E+02
DAV:   4    -0.435227425150E+02   -0.15227E+02   -0.15056E+02 12084   0.798E+01
DAV:   5    -0.440090206352E+02   -0.48628E+00   -0.48398E+00 12608   0.142E+01    0.158E+01
DAV:   6    -0.376547339831E+02    0.63543E+01   -0.20723E+01 18912   0.720E+01    0.786E+00
DAV:   7    -0.379985778370E+02   -0.34384E+00   -0.65113E+00 10620   0.182E+01    0.493E+00
DAV:   8    -0.379416287543E+02    0.56949E-01   -0.96431E-01 16008   0.892E+00    0.207E+00
DAV:   9    -0.379100849888E+02    0.31544E-01   -0.23119E-01 14564   0.638E+00    0.539E-01
DAV:  10    -0.379130482767E+02   -0.29633E-02   -0.42470E-02 10804   0.199E+00    0.297E-01
DAV:  11    -0.379138404847E+02   -0.79221E-03   -0.81029E-03 14628   0.154E+00    0.166E-01
DAV:  12    -0.379138619431E+02   -0.21458E-04   -0.17140E-03 12572   0.685E-01    0.843E-02
DAV:  13    -0.379138523101E+02    0.96330E-05   -0.84280E-04 14416   0.255E-01    0.319E-02
DAV:  14    -0.379138647064E+02   -0.12396E-04   -0.22439E-04 12208   0.157E-01    0.132E-02
DAV:  15    -0.379138691732E+02   -0.44667E-05   -0.34502E-05 14836   0.947E-02    0.980E-03
DAV:  16    -0.379138700309E+02   -0.85775E-06   -0.10597E-05 13064   0.341E-02    0.249E-03
DAV:  17    -0.379138706729E+02   -0.64202E-06   -0.19123E-06 10852   0.153E-02    0.184E-03
DAV:  18    -0.379138707484E+02   -0.75436E-07   -0.33749E-07 12328   0.656E-03    0.114E-03
DAV:  19    -0.379138707448E+02    0.35661E-08   -0.12679E-07 11964   0.608E-03    0.400E-04
DAV:  20    -0.379138707364E+02    0.83432E-08   -0.39988E-08 11016   0.242E-03
   1 F= -.37913871E+02 E0= -.37913866E+02  d E =-.379139E+02
 curvature:   0.00 expect dE= 0.000E+00 dE for cont linesearch  0.000E+00
 trial: gam= 0.00000 g(F)=  0.763E-04 g(S)=  0.482E-04 ort = 0.000E+00 (trialstep = 0.100E+01)
 search vector abs. value=  0.124E-03
 bond charge predicted
       N       E                     dE             d eps       ncg     rms          rms(c)
DAV:   1    -0.379140143933E+02   -0.14365E-03   -0.22534E-02 10068   0.132E+00    0.132E-01
DAV:   2    -0.379139360711E+02    0.78322E-04   -0.30160E-03 12304   0.723E-01    0.574E-02
DAV:   3    -0.379139066368E+02    0.29434E-04   -0.24614E-04 14256   0.155E-01    0.298E-02
DAV:   4    -0.379138891955E+02    0.17441E-04   -0.34176E-05 13700   0.724E-02    0.689E-03
DAV:   5    -0.379138895655E+02   -0.37003E-06   -0.13793E-05 10856   0.325E-02    0.379E-03
DAV:   6    -0.379138894703E+02    0.95163E-07   -0.15801E-06 13716   0.143E-02    0.224E-03
DAV:   7    -0.379138894160E+02    0.54319E-07   -0.25778E-07 14088   0.934E-03    0.157E-03
DAV:   8    -0.379138893014E+02    0.11457E-06   -0.86065E-08 11816   0.280E-03    0.330E-04
DAV:   9    -0.379138892992E+02    0.22965E-08   -0.26745E-08  8796   0.159E-03
   2 F= -.37913889E+02 E0= -.37913885E+02  d E =-.185627E-04
 trial-energy change:   -0.000019  1 .order   -0.000020   -0.000124    0.000085
 step:   0.5859(harm=  0.5950)  dis= 0.00057  next Energy=   -37.913907 (dE=-0.362E-04)
 bond charge predicted
       N       E                     dE             d eps       ncg     rms          rms(c)
DAV:   1    -0.379139287041E+02   -0.39403E-04   -0.38677E-03 10052   0.548E-01    0.545E-02
DAV:   2    -0.379139157492E+02    0.12955E-04   -0.51803E-04 12296   0.299E-01    0.238E-02
DAV:   3    -0.379139102295E+02    0.55197E-05   -0.42389E-05 14260   0.640E-02    0.124E-02
DAV:   4    -0.379139069380E+02    0.32915E-05   -0.58547E-06 13752   0.299E-02    0.290E-03
DAV:   5    -0.379139069390E+02   -0.10409E-08   -0.23629E-06 10872   0.135E-02    0.158E-03
DAV:   6    -0.379139069775E+02   -0.38497E-07   -0.28296E-07 13704   0.600E-03    0.929E-04
DAV:   7    -0.379139069960E+02   -0.18502E-07   -0.43065E-08 10228   0.392E-03    0.647E-04
DAV:   8    -0.379139070437E+02   -0.47645E-07   -0.15806E-08  7076   0.129E-03    0.158E-04
DAV:   9    -0.379139070438E+02   -0.93678E-10   -0.65485E-09  5860   0.897E-04
   3 F= -.37913907E+02 E0= -.37913903E+02  d E =-.363073E-04
 curvature:  -0.30 expect dE=-0.529E-05 dE for cont linesearch -0.375E-08
 trial: gam= 0.13296 g(F)=  0.943E-05 g(S)=  0.837E-05 ort = 0.125E-05 (trialstep = 0.917E+00)
 search vector abs. value=  0.203E-04
 bond charge predicted
       N       E                     dE             d eps       ncg     rms          rms(c)
DAV:   1    -0.379139367766E+02   -0.29733E-04   -0.24851E-03  9868   0.288E-01    0.341E-02
DAV:   2    -0.379139280732E+02    0.87034E-05   -0.10532E-04 12128   0.113E-01    0.204E-02
DAV:   3    -0.379139192453E+02    0.88278E-05   -0.14268E-05 11520   0.657E-02    0.501E-03
DAV:   4    -0.379139192190E+02    0.26335E-07   -0.53193E-06 11504   0.375E-02    0.149E-03
DAV:   5    -0.379139193333E+02   -0.11426E-06   -0.14267E-06 12116   0.118E-02    0.112E-03
DAV:   6    -0.379139193259E+02    0.73824E-08   -0.10329E-07 10856   0.809E-03    0.649E-04
DAV:   7    -0.379139193194E+02    0.64301E-08   -0.39657E-08  9208   0.317E-03
   4 F= -.37913919E+02 E0= -.37913915E+02  d E =-.122757E-04
 trial-energy change:   -0.000012  1 .order   -0.000011   -0.000016   -0.000006
 step:   1.2053(harm=  1.4349)  dis= 0.00048  next Energy=   -37.913920 (dE=-0.132E-04)
 bond charge predicted
       N       E                     dE             d eps       ncg     rms          rms(c)
DAV:   1    -0.379139223503E+02   -0.30245E-05   -0.24523E-04  9876   0.908E-02    0.107E-02
DAV:   2    -0.379139214642E+02    0.88614E-06   -0.10494E-05 12144   0.361E-02    0.641E-03
DAV:   3    -0.379139205962E+02    0.86800E-06   -0.14684E-06 11712   0.225E-02    0.158E-03
DAV:   4    -0.379139205898E+02    0.64288E-08   -0.54991E-07 12232   0.126E-02    0.479E-04
DAV:   5    -0.379139206005E+02   -0.10675E-07   -0.13882E-07 12044   0.348E-03    0.353E-04
DAV:   6    -0.379139205996E+02    0.84128E-09   -0.73763E-09  6032   0.197E-03
   5 F= -.37913921E+02 E0= -.37913916E+02  d E =-.135558E-04
 curvature:  -0.65 expect dE=-0.474E-05 dE for cont linesearch -0.221E-06
 ZBRENT: increasing intervall
 opt :   1.7814  next Energy=   -37.913920 (dE=-0.128E-04)
 bond charge predicted
       N       E                     dE             d eps       ncg     rms          rms(c)
DAV:   1    -0.379139269761E+02   -0.63757E-05   -0.98195E-04  9864   0.181E-01    0.214E-02
DAV:   2    -0.379139234900E+02    0.34862E-05   -0.41569E-05 12120   0.700E-02    0.128E-02
DAV:   3    -0.379139199969E+02    0.34931E-05   -0.55667E-06 11504   0.398E-02    0.313E-03
DAV:   4    -0.379139199878E+02    0.91113E-08   -0.21092E-06 11500   0.226E-02    0.939E-04
DAV:   5    -0.379139200311E+02   -0.43291E-07   -0.55035E-07 12056   0.752E-03    0.708E-04
DAV:   6    -0.379139200280E+02    0.30836E-08   -0.41468E-08  9672   0.535E-03
   6 F= -.37913920E+02 E0= -.37913916E+02  d E =-.129842E-04
 curvature:   2.09 expect dE= 0.349E-04 dE for cont linesearch  0.239E-05
 ZBRENT: bracketing found
 ZBRENT: interpolating
 opt :   1.4086  next Energy=   -37.913921 (dE=-0.138E-04)
 bond charge predicted
       N       E                     dE             d eps       ncg     rms          rms(c)
DAV:   1    -0.379139236549E+02   -0.36239E-05   -0.40919E-04  9864   0.117E-01    0.138E-02
DAV:   2    -0.379139223059E+02    0.13491E-05   -0.17453E-05 12136   0.477E-02    0.826E-03
DAV:   3    -0.379139208482E+02    0.14576E-05   -0.24642E-06 11740   0.297E-02    0.207E-03
DAV:   4    -0.379139208499E+02   -0.16257E-08   -0.89189E-07 12236   0.168E-02    0.595E-04
DAV:   5    -0.379139208693E+02   -0.19425E-07   -0.23365E-07 12212   0.448E-03    0.444E-04
DAV:   6    -0.379139208676E+02    0.16726E-08   -0.12051E-08  6124   0.236E-03
   7 F= -.37913921E+02 E0= -.37913916E+02  d E =-.138238E-04
 curvature:  -0.23 expect dE=-0.219E-05 dE for cont linesearch -0.316E-08
 trial: gam= 0.51205 g(F)=  0.714E-05 g(S)=  0.222E-05 ort = 0.524E-06 (trialstep = 0.102E+01)
 search vector abs. value=  0.152E-04
 bond charge predicted
       N       E                     dE             d eps       ncg     rms          rms(c)
DAV:   1    -0.379139366934E+02   -0.15824E-04   -0.24213E-03  9996   0.287E-01    0.290E-02
DAV:   2    -0.379139319759E+02    0.47175E-05   -0.87018E-05 11820   0.101E-01    0.169E-02
DAV:   3    -0.379139268096E+02    0.51663E-05   -0.99016E-06 13084   0.498E-02    0.563E-03
DAV:   4    -0.379139264585E+02    0.35115E-06   -0.33401E-06 10908   0.262E-02    0.104E-03
DAV:   5    -0.379139265437E+02   -0.85202E-07   -0.93205E-07 11524   0.107E-02    0.823E-04
DAV:   6    -0.379139265508E+02   -0.71277E-08   -0.12128E-07  9856   0.665E-03    0.429E-04
DAV:   7    -0.379139265618E+02   -0.11053E-07   -0.45465E-08  9420   0.228E-03    0.187E-04
DAV:   8    -0.379139265624E+02   -0.51205E-09   -0.83046E-09  5860   0.115E-03
   8 F= -.37913927E+02 E0= -.37913922E+02  d E =-.569475E-05
 trial-energy change:   -0.000006  1 .order   -0.000006   -0.000010   -0.000002
 step:   1.2769(harm=  1.2496)  dis= 0.00043  next Energy=   -37.913927 (dE=-0.593E-05)
 bond charge predicted
       N       E                     dE             d eps       ncg     rms          rms(c)
DAV:   1    -0.379139274562E+02   -0.89431E-06   -0.16057E-04 10012   0.739E-02    0.746E-03
DAV:   2    -0.379139271505E+02    0.30568E-06   -0.57599E-06 11832   0.261E-02    0.435E-03
DAV:   3    -0.379139267755E+02    0.37502E-06   -0.66068E-07 13128   0.139E-02    0.145E-03
DAV:   4    -0.379139267549E+02    0.20602E-07   -0.23170E-07 10936   0.716E-03    0.270E-04
DAV:   5    -0.379139267621E+02   -0.72287E-08   -0.68688E-08 10220   0.280E-03
   9 F= -.37913927E+02 E0= -.37913922E+02  d E =-.589448E-05
 curvature:  -0.97 expect dE=-0.370E-05 dE for cont linesearch -0.778E-08
 trial: gam= 0.45546 g(F)=  0.342E-05 g(S)=  0.380E-06 ort =-0.349E-06 (trialstep = 0.107E+01)
 search vector abs. value=  0.664E-05
 bond charge predicted
       N       E                     dE             d eps       ncg     rms          rms(c)
DAV:   1    -0.379139335619E+02   -0.68071E-05   -0.14026E-03  9996   0.210E-01    0.142E-02
DAV:   2    -0.379139341994E+02   -0.63746E-06   -0.32109E-05 12488   0.511E-02    0.845E-03
DAV:   3    -0.379139330389E+02    0.11605E-05   -0.21217E-06 13260   0.215E-02    0.222E-03
DAV:   4    -0.379139330223E+02    0.16621E-07   -0.69394E-07 10864   0.132E-02    0.495E-04
DAV:   5    -0.379139330423E+02   -0.20016E-07   -0.19763E-07 11804   0.506E-03    0.412E-04
DAV:   6    -0.379139330467E+02   -0.43651E-08   -0.27712E-08  7800   0.326E-03
  10 F= -.37913933E+02 E0= -.37913929E+02  d E =-.628462E-05
 trial-energy change:   -0.000006  1 .order   -0.000003   -0.000004   -0.000002
 step:   1.1551(harm=  2.1414)  dis= 0.00021  next Energy=   -37.913933 (dE=-0.637E-05)
 bond charge predicted
       N       E                     dE             d eps       ncg     rms          rms(c)
DAV:   1    -0.379139332151E+02   -0.17275E-06   -0.94915E-06 10044   0.174E-02    0.117E-03
DAV:   2    -0.379139332220E+02   -0.69313E-08   -0.22618E-07 12256   0.440E-03    0.706E-04
DAV:   3    -0.379139332168E+02    0.52673E-08   -0.15768E-08  7316   0.289E-03
  11 F= -.37913933E+02 E0= -.37913929E+02  d E =-.645467E-05
 curvature:  -0.31 expect dE=-0.564E-06 dE for cont linesearch -0.157E-06
 ZBRENT: increasing intervall
 opt :   1.3298  next Energy=   -37.913934 (dE=-0.678E-05)
 bond charge predicted
       N       E                     dE             d eps       ncg     rms          rms(c)
DAV:   1    -0.379139335177E+02   -0.29567E-06   -0.37567E-05 10012   0.343E-02    0.231E-03
DAV:   2    -0.379139335404E+02   -0.22753E-07   -0.85608E-07 12736   0.792E-03    0.137E-03
DAV:   3    -0.379139335131E+02    0.27300E-07   -0.50674E-08 11756   0.232E-03    0.357E-04
DAV:   4    -0.379139335140E+02   -0.83901E-09   -0.15763E-08  5956   0.117E-03
  12 F= -.37913934E+02 E0= -.37913929E+02  d E =-.675189E-05
 curvature:  -0.64 expect dE=-0.127E-05 dE for cont linesearch -0.218E-06
 ZBRENT: increasing intervall
 opt :   1.6793  next Energy=   -37.913934 (dE=-0.716E-05)
 bond charge predicted
       N       E                     dE             d eps       ncg     rms          rms(c)
DAV:   1    -0.379139339967E+02   -0.48361E-06   -0.15021E-04 10000   0.688E-02    0.465E-03
DAV:   2    -0.379139340733E+02   -0.76554E-07   -0.34349E-06 12532   0.169E-02    0.276E-03
DAV:   3    -0.379139339562E+02    0.11711E-06   -0.23090E-07 12980   0.738E-03    0.742E-04
DAV:   4    -0.379139339562E+02    0.45929E-10   -0.74847E-08 10820   0.459E-03
  13 F= -.37913934E+02 E0= -.37913929E+02  d E =-.719407E-05
 curvature:  -1.19 expect dE=-0.269E-05 dE for cont linesearch -0.121E-06
 ZBRENT: increasing intervall
 opt :   2.3782  next Energy=   -37.913934 (dE=-0.729E-05)
 bond charge predicted
       N       E                     dE             d eps       ncg     rms          rms(c)
DAV:   1    -0.379139344270E+02   -0.47080E-06   -0.60149E-04  9988   0.138E-01    0.929E-03
DAV:   2    -0.379139347186E+02   -0.29165E-06   -0.13854E-05 12432   0.347E-02    0.552E-03
DAV:   3    -0.379139342431E+02    0.47556E-06   -0.10274E-06 13276   0.177E-02    0.151E-03
DAV:   4    -0.379139342343E+02    0.87980E-08   -0.32646E-07 11168   0.108E-02    0.315E-04
DAV:   5    -0.379139342471E+02   -0.12767E-07   -0.12369E-07 11368   0.337E-03    0.285E-04
DAV:   6    -0.379139342497E+02   -0.26625E-08   -0.11249E-08  6448   0.197E-03
  14 F= -.37913934E+02 E0= -.37913930E+02  d E =-.748764E-05
 curvature:  -0.90 expect dE=-0.369E-05 dE for cont linesearch -0.104E-07
 trial: gam= 1.07662 g(F)=  0.360E-05 g(S)=  0.482E-06 ort =-0.276E-06 (trialstep = 0.790E+00)
 search vector abs. value=  0.112E-04
 bond charge predicted
       N       E                     dE             d eps       ncg     rms          rms(c)
DAV:   1    -0.379139345919E+02   -0.34480E-06   -0.13922E-03 10004   0.209E-01    0.935E-03
DAV:   2    -0.379139365884E+02   -0.19965E-05   -0.31883E-05 12356   0.444E-02    0.548E-03
DAV:   3    -0.379139361964E+02    0.39198E-06   -0.15452E-06 12616   0.131E-02    0.255E-03
DAV:   4    -0.379139360886E+02    0.10777E-06   -0.34928E-07 13604   0.121E-02    0.510E-04
DAV:   5    -0.379139360891E+02   -0.43701E-09   -0.13905E-07 11152   0.464E-03    0.314E-04
DAV:   6    -0.379139360889E+02    0.13779E-09   -0.20037E-08  7176   0.163E-03
  15 F= -.37913936E+02 E0= -.37913932E+02  d E =-.183921E-05
 trial-energy change:   -0.000002  1 .order   -0.000002   -0.000003   -0.000001
 step:   1.0210(harm=  1.0210)  dis= 0.00024  next Energy=   -37.913936 (dE=-0.193E-05)
 bond charge predicted
       N       E                     dE             d eps       ncg     rms          rms(c)
DAV:   1    -0.379139360809E+02    0.81573E-08   -0.11991E-04 10004   0.615E-02    0.276E-03
DAV:   2    -0.379139362603E+02   -0.17941E-06   -0.27719E-06 12376   0.135E-02    0.161E-03
DAV:   3    -0.379139362152E+02    0.45165E-07   -0.14626E-07 12556   0.505E-03    0.765E-04
DAV:   4    -0.379139362011E+02    0.14061E-07   -0.29512E-08  8100   0.433E-03    0.144E-04
DAV:   5    -0.379139362000E+02    0.10855E-08   -0.15381E-08  5872   0.162E-03
  16 F= -.37913936E+02 E0= -.37913932E+02  d E =-.195029E-05
 curvature:  -1.51 expect dE=-0.193E-05 dE for cont linesearch -0.168E-09
 trial: gam= 0.21959 g(F)=  0.939E-06 g(S)=  0.341E-06 ort = 0.353E-07 (trialstep = 0.836E+00)
 search vector abs. value=  0.183E-05
 bond charge predicted
       N       E                     dE             d eps       ncg     rms          rms(c)
DAV:   1    -0.379139371103E+02   -0.90923E-06   -0.25292E-04 10016   0.937E-02    0.599E-03
DAV:   2    -0.379139372836E+02   -0.17329E-06   -0.79849E-06 11940   0.304E-02    0.320E-03
DAV:   3    -0.379139371643E+02    0.11933E-06   -0.60621E-07 12780   0.832E-03    0.162E-03
DAV:   4    -0.379139371077E+02    0.56591E-07   -0.13152E-07 14236   0.418E-03    0.298E-04
DAV:   5    -0.379139371085E+02   -0.75443E-09   -0.36816E-08  8736   0.173E-03
  17 F= -.37913937E+02 E0= -.37913933E+02  d E =-.908435E-06
 trial-energy change:   -0.000001  1 .order   -0.000001   -0.000001   -0.000001
 step:   1.3952(harm=  2.0519)  dis= 0.00012  next Energy=   -37.913937 (dE=-0.114E-05)
 bond charge predicted
       N       E                     dE             d eps       ncg     rms          rms(c)
DAV:   1    -0.379139374618E+02   -0.35407E-06   -0.11320E-04 10024   0.626E-02    0.401E-03
DAV:   2    -0.379139375488E+02   -0.87027E-07   -0.35419E-06 11960   0.203E-02    0.215E-03
DAV:   3    -0.379139374896E+02    0.59238E-07   -0.27050E-07 12776   0.556E-03    0.108E-03
DAV:   4    -0.379139374632E+02    0.26391E-07   -0.56451E-08 11884   0.268E-03    0.199E-04
DAV:   5    -0.379139374633E+02   -0.14052E-09   -0.17377E-08  6952   0.135E-03
  18 F= -.37913937E+02 E0= -.37913933E+02  d E =-.126329E-05
 curvature:  -1.04 expect dE=-0.920E-06 dE for cont linesearch -0.857E-07
 trial: gam= 0.43851 g(F)=  0.465E-06 g(S)=  0.423E-06 ort = 0.390E-06 (trialstep = 0.948E+00)
 search vector abs. value=  0.158E-05
 bond charge predicted
       N       E                     dE             d eps       ncg     rms          rms(c)
DAV:   1    -0.379139382110E+02   -0.74781E-06   -0.23851E-04 10128   0.919E-02    0.949E-03
DAV:   2    -0.379139375904E+02    0.62061E-06   -0.85989E-06 12264   0.353E-02    0.538E-03
DAV:   3    -0.379139370302E+02    0.56021E-06   -0.99061E-07 12208   0.163E-02    0.196E-03
DAV:   4    -0.379139369775E+02    0.52617E-07   -0.37953E-07 12280   0.109E-02    0.385E-04
DAV:   5    -0.379139369871E+02   -0.95247E-08   -0.11912E-07 10704   0.404E-03    0.279E-04
DAV:   6    -0.379139369871E+02   -0.17280E-10   -0.14014E-08  6732   0.233E-03
  19 F= -.37913937E+02 E0= -.37913933E+02  d E =0.476218E-06
 trial-energy change:    0.000000  1 .order   -0.000001   -0.000001   -0.000000
 step:   1.4727(harm=  1.4727)  dis= 0.00016  next Energy=   -37.913938 (dE=-0.780E-06)
 bond charge predicted
       N       E                     dE             d eps       ncg     rms          rms(c)
DAV:   1    -0.379139375248E+02   -0.53778E-06   -0.73353E-05 10128   0.511E-02    0.528E-03
DAV:   2    -0.379139373498E+02    0.17506E-06   -0.26811E-06 12272   0.200E-02    0.298E-03
DAV:   3    -0.379139371678E+02    0.18201E-06   -0.31224E-07 12188   0.951E-03    0.110E-03
DAV:   4    -0.379139371501E+02    0.17666E-07   -0.11983E-07 12132   0.627E-03    0.212E-04
DAV:   5    -0.379139371528E+02   -0.26403E-08   -0.37081E-08  8604   0.226E-03
  20 F= -.37913937E+02 E0= -.37913933E+02  d E =0.310551E-06
 curvature:  -1.10 expect dE=-0.651E-06 dE for cont linesearch -0.484E-09
 trial: gam= 0.87568 g(F)=  0.456E-06 g(S)=  0.135E-06 ort = 0.264E-07 (trialstep = 0.900E+00)
 search vector abs. value=  0.185E-05
 bond charge predicted
       N       E                     dE             d eps       ncg     rms          rms(c)
DAV:   1    -0.379139377062E+02   -0.55606E-06   -0.29553E-04  9908   0.967E-02    0.615E-03
DAV:   2    -0.379139378604E+02   -0.15423E-06   -0.69620E-06 12680   0.236E-02    0.358E-03
DAV:   3    -0.379139376537E+02    0.20671E-06   -0.45093E-07 12624   0.975E-03    0.135E-03
DAV:   4    -0.379139376396E+02    0.14062E-07   -0.16089E-07 11020   0.487E-03    0.220E-04
DAV:   5    -0.379139376448E+02   -0.51300E-08   -0.39295E-08  8600   0.244E-03
  21 F= -.37913938E+02 E0= -.37913933E+02  d E =-.492006E-06
 trial-energy change:   -0.000000  1 .order   -0.000000   -0.000001   -0.000000
 step:   1.0725(harm=  1.4667)  dis= 0.00013  next Energy=   -37.913938 (dE=-0.513E-06)
 bond charge predicted
       N       E                     dE             d eps       ncg     rms          rms(c)
DAV:   1    -0.379139369573E+02    0.68230E-06   -0.10922E-05  9960   0.187E-02    0.119E-03
DAV:   2    -0.379139369697E+02   -0.12396E-07   -0.26332E-07 12568   0.466E-03    0.686E-04
DAV:   3    -0.379139369640E+02    0.57321E-08   -0.13521E-08  6468   0.215E-03
  22 F= -.37913937E+02 E0= -.37913933E+02  d E =0.188757E-06
 curvature:  -1.14 expect dE=-0.302E-06 dE for cont linesearch -0.371E-07
 trial: gam= 0.17413 g(F)=  0.146E-06 g(S)=  0.119E-06 ort = 0.245E-06 (trialstep = 0.934E+00)
 search vector abs. value=  0.407E-06
 bond charge predicted
       N       E                     dE             d eps       ncg     rms          rms(c)
DAV:   1    -0.379139382996E+02   -0.13299E-05   -0.61897E-05 10296   0.562E-02    0.569E-03
DAV:   2    -0.379139380841E+02    0.21545E-06   -0.43719E-06 11144   0.279E-02    0.277E-03
DAV:   3    -0.379139379423E+02    0.14189E-06   -0.41393E-07 14124   0.850E-03    0.131E-03
DAV:   4    -0.379139378797E+02    0.62594E-07   -0.69940E-08 11960   0.492E-03    0.287E-04
DAV:   5    -0.379139378746E+02    0.50927E-08   -0.32443E-08  8308   0.194E-03
  23 F= -.37913938E+02 E0= -.37913933E+02  d E =-.910576E-06
 trial-energy change:   -0.000001  1 .order   -0.000000   -0.000000   -0.000000
 step:   0.9470(harm=  1.1969)  dis= 0.00004  next Energy=   -37.913938 (dE=-0.911E-06)
 bond charge predicted
       N       E                     dE             d eps       ncg     rms          rms(c)
DAV:   1    -0.379139378778E+02    0.18390E-08   -0.13032E-08  5528   0.143E-03    0.142E-04
DAV:   2    -0.379139378803E+02   -0.24475E-08   -0.42182E-09  5216   0.130E-03
  24 F= -.37913938E+02 E0= -.37913933E+02  d E =-.916277E-06
 curvature:  -0.07 expect dE=-0.101E-07 dE for cont linesearch -0.119E-09
 trial: gam= 0.49055 g(F)=  0.672E-07 g(S)=  0.690E-07 ort = 0.256E-07 (trialstep = 0.937E+00)
 search vector abs. value=  0.259E-06
 reached required accuracy - stopping structural energy minimisation
 writing wavefunctions
Thu Dec 23 22:19:35 CST 2021
