Sun Mar  6 00:56:43 CST 2022
 running on   48 total cores
 distrk:  each k-point on   48 cores,    1 groups
 distr:  one band on   24 cores,    2 groups
 using from now: INCAR     
 vasp.5.3.5 31Mar14 (build Jan 11 2016 19:50:55) complex                        
  
 POSCAR found type information on POSCAR  B  C 
 POSCAR found :  2 types and       8 ions
 scaLAPACK will be used

 ----------------------------------------------------------------------------- 
|                                                                             |
|           W    W    AA    RRRRR   N    N  II  N    N   GGGG   !!!           |
|           W    W   A  A   R    R  NN   N  II  NN   N  G    G  !!!           |
|           W    W  A    A  R    R  N N  N  II  N N  N  G       !!!           |
|           W WW W  AAAAAA  RRRRR   N  N N  II  N  N N  G  GGG   !            |
|           WW  WW  A    A  R   R   N   NN  II  N   NN  G    G                |
|           W    W  A    A  R    R  N    N  II  N    N   GGGG   !!!           |
|                                                                             |
|      For optimal performance we recommend to set                            |
|        NCORE= 4 - approx SQRT( number of cores)                             |
|      NCORE specifies how many cores store one orbital (NPAR=cpu/NCORE).     |
|      This setting can  greatly improve the performance of VASP for DFT.     |
|      The default, NPAR=number of cores might be grossly inefficient         |
|      on modern multi-core architectures or massively parallel machines.     |
|      Do your own testing !!!!                                               |
|      Unfortunately you need to use the default for GW and RPA calculations. |
|      (for HF NCORE is supported but not extensively tested yet)             |
|                                                                             |
 ----------------------------------------------------------------------------- 

 LDA part: xc-table for Pade appr. of Perdew
 POSCAR, INCAR and KPOINTS ok, starting setup
 WARNING: small aliasing (wrap around) errors must be expected
 FFT: planning ...
 WAVECAR not read
 entering main loop
       N       E                     dE             d eps       ncg     rms          rms(c)
DAV:   1     0.192533995215E+03    0.19253E+03   -0.15348E+04  4480   0.163E+03
DAV:   2    -0.412447366025E+02   -0.23378E+03   -0.22776E+03  6180   0.286E+02
DAV:   3    -0.636862431884E+02   -0.22442E+02   -0.22153E+02  5284   0.924E+01
DAV:   4    -0.644509632790E+02   -0.76472E+00   -0.76084E+00  6108   0.191E+01
DAV:   5    -0.644654069048E+02   -0.14444E-01   -0.14436E-01  6028   0.255E+00    0.128E+01
DAV:   6    -0.598415574017E+02    0.46238E+01   -0.92958E+00  5148   0.160E+01    0.673E+00
DAV:   7    -0.588889135010E+02    0.95264E+00   -0.21373E+00  5392   0.881E+00    0.314E+00
DAV:   8    -0.587706849854E+02    0.11823E+00   -0.49832E-01  5512   0.395E+00    0.100E+00
DAV:   9    -0.587732675016E+02   -0.25825E-02   -0.30096E-02  5564   0.119E+00    0.274E-01
DAV:  10    -0.587754404508E+02   -0.21729E-02   -0.40627E-03  5444   0.487E-01    0.977E-02
DAV:  11    -0.587760999263E+02   -0.65948E-03   -0.70132E-04  5264   0.217E-01    0.410E-02
DAV:  12    -0.587761837614E+02   -0.83835E-04   -0.16346E-04  5056   0.112E-01    0.165E-02
DAV:  13    -0.587761870446E+02   -0.32832E-05   -0.30964E-05  5544   0.473E-02    0.718E-03
DAV:  14    -0.587761873175E+02   -0.27290E-06   -0.68228E-06  5428   0.227E-02    0.273E-03
DAV:  15    -0.587761874413E+02   -0.12381E-06   -0.11719E-06  5864   0.864E-03    0.133E-03
DAV:  16    -0.587761875174E+02   -0.76057E-07   -0.27003E-07  5108   0.466E-03    0.584E-04
DAV:  17    -0.587761875206E+02   -0.32639E-08   -0.24469E-08  4908   0.123E-03
   1 F= -.58776188E+02 E0= -.58775642E+02  d E =-.587762E+02
 curvature:   0.00 expect dE= 0.000E+00 dE for cont linesearch  0.000E+00
 trial: gam= 0.00000 g(F)=  0.230E-02 g(S)=  0.537E-03 ort = 0.000E+00 (trialstep = 0.100E+01)
 search vector abs. value=  0.284E-02
 bond charge predicted
       N       E                     dE             d eps       ncg     rms          rms(c)
DAV:   1    -0.587736222556E+02    0.25653E-02   -0.38139E-01  4516   0.453E+00    0.238E-01
DAV:   2    -0.587729356535E+02    0.68660E-03   -0.11962E-02  5272   0.780E-01    0.131E-01
DAV:   3    -0.587724420599E+02    0.49359E-03   -0.11644E-03  5428   0.248E-01    0.462E-02
DAV:   4    -0.587724148920E+02    0.27168E-04   -0.28591E-04  5872   0.108E-01    0.150E-02
DAV:   5    -0.587724144543E+02    0.43767E-06   -0.23149E-05  5936   0.338E-02    0.713E-03
DAV:   6    -0.587724145123E+02   -0.58063E-07   -0.20200E-06  6004   0.996E-03    0.219E-03
DAV:   7    -0.587724145787E+02   -0.66335E-07   -0.45309E-07  5348   0.466E-03    0.985E-04
DAV:   8    -0.587724145638E+02    0.14897E-07   -0.11769E-07  6016   0.246E-03    0.417E-04
DAV:   9    -0.587724145593E+02    0.45095E-08   -0.23634E-08  4024   0.124E-03
   2 F= -.58772415E+02 E0= -.58771689E+02  d E =0.377296E-02
 trial-energy change:    0.003773  1 .order    0.003786   -0.002835    0.010407
 step:   0.2151(harm=  0.2141)  dis= 0.00107  next Energy=   -58.776493 (dE=-0.305E-03)
 bond charge predicted
       N       E                     dE             d eps       ncg     rms          rms(c)
DAV:   1    -0.587772425904E+02   -0.48280E-02   -0.23558E-01  4496   0.356E+00    0.184E-01
DAV:   2    -0.587768248103E+02    0.41778E-03   -0.73417E-03  5288   0.612E-01    0.103E-01
DAV:   3    -0.587765138284E+02    0.31098E-03   -0.71357E-04  5372   0.194E-01    0.363E-02
DAV:   4    -0.587764948045E+02    0.19024E-04   -0.17331E-04  5864   0.841E-02    0.118E-02
DAV:   5    -0.587764938792E+02    0.92525E-06   -0.13940E-05  5924   0.262E-02    0.546E-03
DAV:   6    -0.587764934599E+02    0.41933E-06   -0.11768E-06  5992   0.759E-03    0.164E-03
DAV:   7    -0.587764933406E+02    0.11934E-06   -0.26782E-07  5344   0.358E-03    0.774E-04
DAV:   8    -0.587764933430E+02   -0.24352E-08   -0.71981E-08  5944   0.193E-03
   3 F= -.58776493E+02 E0= -.58775912E+02  d E =-.305822E-03
 curvature:  -0.11 expect dE=-0.439E-04 dE for cont linesearch -0.144E-09
 trial: gam= 0.14382 g(F)=  0.295E-03 g(S)=  0.115E-03 ort = 0.196E-05 (trialstep = 0.843E+00)
 search vector abs. value=  0.469E-03
 bond charge predicted
       N       E                     dE             d eps       ncg     rms          rms(c)
DAV:   1    -0.587764608202E+02    0.32520E-04   -0.31695E-02  4488   0.129E+00    0.759E-02
DAV:   2    -0.587763149477E+02    0.14587E-03   -0.97691E-04  5492   0.230E-01    0.403E-02
DAV:   3    -0.587762726346E+02    0.42313E-04   -0.25093E-04  5320   0.102E-01    0.172E-02
DAV:   4    -0.587762706322E+02    0.20025E-05   -0.27971E-05  5212   0.363E-02    0.100E-02
DAV:   5    -0.587762702010E+02    0.43123E-06   -0.49367E-06  5864   0.139E-02    0.206E-03
DAV:   6    -0.587762701620E+02    0.38929E-07   -0.47762E-07  5616   0.487E-03    0.119E-03
DAV:   7    -0.587762701808E+02   -0.18777E-07   -0.56291E-08  5288   0.176E-03    0.509E-04
DAV:   8    -0.587762701831E+02   -0.23008E-08   -0.86929E-09  3100   0.824E-04
   4 F= -.58776270E+02 E0= -.58775672E+02  d E =0.223160E-03
 trial-energy change:    0.000223  1 .order    0.000227   -0.000346    0.000799
 step:   0.2579(harm=  0.2545)  dis= 0.00045  next Energy=   -58.776546 (dE=-0.530E-04)
 bond charge predicted
       N       E                     dE             d eps       ncg     rms          rms(c)
DAV:   1    -0.587766411003E+02   -0.37092E-03   -0.15283E-02  4488   0.897E-01    0.526E-02
DAV:   2    -0.587765701031E+02    0.70997E-04   -0.47007E-04  5488   0.159E-01    0.280E-02
DAV:   3    -0.587765483299E+02    0.21773E-04   -0.12119E-04  5340   0.707E-02    0.120E-02
DAV:   4    -0.587765468565E+02    0.14734E-05   -0.13466E-05  5232   0.252E-02    0.698E-03
DAV:   5    -0.587765460353E+02    0.82112E-06   -0.23812E-06  5896   0.962E-03    0.144E-03
DAV:   6    -0.587765460161E+02    0.19261E-07   -0.23377E-07  5672   0.340E-03    0.831E-04
DAV:   7    -0.587765460023E+02    0.13773E-07   -0.25581E-08  4540   0.122E-03    0.352E-04
DAV:   8    -0.587765459980E+02    0.43378E-08   -0.40875E-09  2808   0.573E-04
   5 F= -.58776546E+02 E0= -.58775960E+02  d E =-.526550E-04
 curvature:  -0.15 expect dE=-0.178E-04 dE for cont linesearch -0.305E-08
 trial: gam= 0.30577 g(F)=  0.733E-04 g(S)=  0.490E-04 ort =-0.313E-05 (trialstep = 0.726E+00)
 search vector abs. value=  0.164E-03
 bond charge predicted
       N       E                     dE             d eps       ncg     rms          rms(c)
DAV:   1    -0.587766738540E+02   -0.12785E-03   -0.62385E-03  4488   0.551E-01    0.401E-02
DAV:   2    -0.587766116421E+02    0.62212E-04   -0.17564E-04  5296   0.946E-02    0.200E-02
DAV:   3    -0.587765954158E+02    0.16226E-04   -0.73922E-05  5040   0.497E-02    0.763E-03
DAV:   4    -0.587765947932E+02    0.62265E-06   -0.46812E-06  5828   0.144E-02    0.411E-03
DAV:   5    -0.587765946150E+02    0.17816E-06   -0.10449E-06  5444   0.588E-03    0.144E-03
DAV:   6    -0.587765945702E+02    0.44820E-07   -0.77522E-08  5504   0.215E-03    0.664E-04
DAV:   7    -0.587765945590E+02    0.11141E-07   -0.26357E-08  5124   0.118E-03    0.176E-04
DAV:   8    -0.587765945556E+02    0.34215E-08   -0.33480E-09  2808   0.481E-04
   6 F= -.58776595E+02 E0= -.58776021E+02  d E =-.485576E-04
 trial-energy change:   -0.000049  1 .order   -0.000047   -0.000088   -0.000006
 step:   0.7763(harm=  0.7817)  dis= 0.00048  next Energy=   -58.776595 (dE=-0.488E-04)
 bond charge predicted
       N       E                     dE             d eps       ncg     rms          rms(c)
DAV:   1    -0.587765951798E+02   -0.62078E-06   -0.29862E-05  4608   0.382E-02    0.279E-03
DAV:   2    -0.587765949312E+02    0.24862E-06   -0.84689E-07  5284   0.657E-03    0.138E-03
DAV:   3    -0.587765948773E+02    0.53924E-07   -0.35711E-07  5052   0.346E-03    0.526E-04
DAV:   4    -0.587765948761E+02    0.11887E-08   -0.21469E-08  3900   0.100E-03
   7 F= -.58776595E+02 E0= -.58776023E+02  d E =-.488781E-04
 curvature:  -0.52 expect dE=-0.110E-03 dE for cont linesearch -0.577E-08
 trial: gam= 1.70001 g(F)=  0.809E-04 g(S)=  0.130E-03 ort = 0.134E-05 (trialstep = 0.175E+00)
 search vector abs. value=  0.690E-03
 bond charge predicted
       N       E                     dE             d eps       ncg     rms          rms(c)
DAV:   1    -0.587766477830E+02   -0.52906E-04   -0.11291E-03  4496   0.231E-01    0.202E-02
DAV:   2    -0.587766335363E+02    0.14247E-04   -0.31243E-05  5008   0.386E-02    0.937E-03
DAV:   3    -0.587766297909E+02    0.37453E-05   -0.12601E-05  4988   0.202E-02    0.302E-03
DAV:   4    -0.587766294723E+02    0.31864E-06   -0.74120E-07  5696   0.547E-03    0.153E-03
DAV:   5    -0.587766293539E+02    0.11837E-06   -0.11675E-07  5588   0.204E-03    0.611E-04
DAV:   6    -0.587766293154E+02    0.38487E-07   -0.15381E-08  3412   0.100E-03    0.178E-04
DAV:   7    -0.587766293030E+02    0.12398E-07   -0.50874E-09  2732   0.545E-04    0.843E-05
DAV:   8    -0.587766293034E+02   -0.36948E-09   -0.89981E-10  2560   0.250E-04
   8 F= -.58776629E+02 E0= -.58776058E+02  d E =-.344273E-04
 ZBRENT: can't locate minimum, use default step
 trial-energy change:   -0.000034  1 .order   -0.000035   -0.000037   -0.000032
 step:   0.7007(harm=  1.2466)  dis= 0.00081  next Energy=   -58.776728 (dE=-0.133E-03)
 bond charge predicted
       N       E                     dE             d eps       ncg     rms          rms(c)
DAV:   1    -0.587768667825E+02   -0.23748E-03   -0.10171E-02  4480   0.694E-01    0.605E-02
DAV:   2    -0.587767385738E+02    0.12821E-03   -0.28069E-04  4980   0.116E-01    0.281E-02
DAV:   3    -0.587767057886E+02    0.32785E-04   -0.11311E-04  4988   0.606E-02    0.902E-03
DAV:   4    -0.587767035204E+02    0.22682E-05   -0.66584E-06  5684   0.164E-02    0.455E-03
DAV:   5    -0.587767028422E+02    0.67812E-06   -0.10330E-06  5588   0.606E-03    0.182E-03
DAV:   6    -0.587767026866E+02    0.15561E-06   -0.15590E-07  5752   0.298E-03    0.553E-04
DAV:   7    -0.587767026443E+02    0.42369E-07   -0.37826E-08  5508   0.138E-03    0.248E-04
DAV:   8    -0.587767026427E+02    0.15134E-08   -0.48982E-09  2872   0.572E-04
   9 F= -.58776703E+02 E0= -.58776133E+02  d E =-.107767E-03
 curvature:  -1.49 expect dE=-0.301E-03 dE for cont linesearch -0.208E-04
 ZBRENT: increasing intervall
 opt :   1.7517  next Energy=   -58.776716 (dE=-0.121E-03)
 bond charge predicted
       N       E                     dE             d eps       ncg     rms          rms(c)
DAV:   1    -0.587773679314E+02   -0.66529E-03   -0.40600E-02  4480   0.139E+00    0.121E-01
DAV:   2    -0.587768563896E+02    0.51154E-03   -0.11186E-03  4972   0.231E-01    0.562E-02
DAV:   3    -0.587767263243E+02    0.13007E-03   -0.45017E-04  4996   0.121E-01    0.180E-02
DAV:   4    -0.587767178108E+02    0.85136E-05   -0.26648E-05  5684   0.327E-02    0.907E-03
DAV:   5    -0.587767154817E+02    0.23291E-05   -0.41076E-06  5592   0.121E-02    0.363E-03
DAV:   6    -0.587767150476E+02    0.43408E-06   -0.62263E-07  5752   0.595E-03    0.110E-03
DAV:   7    -0.587767149440E+02    0.10361E-06   -0.15113E-07  5660   0.277E-03    0.497E-04
DAV:   8    -0.587767149392E+02    0.47557E-08   -0.21192E-08  3984   0.115E-03
  10 F= -.58776715E+02 E0= -.58776149E+02  d E =-.120063E-03
 curvature:  -0.98 expect dE=-0.101E-02 dE for cont linesearch -0.728E-05
 ZBRENT: bracketing found
 ZBRENT: interpolating
 opt :   1.3084  next Energy=   -58.776731 (dE=-0.136E-03)
 bond charge predicted
       N       E                     dE             d eps       ncg     rms          rms(c)
DAV:   1    -0.587768464560E+02   -0.13151E-03   -0.72263E-03  4480   0.585E-01    0.510E-02
DAV:   2    -0.587767552821E+02    0.91174E-04   -0.19966E-04  4960   0.976E-02    0.237E-02
DAV:   3    -0.587767327149E+02    0.22567E-04   -0.80240E-05  4968   0.511E-02    0.761E-03
DAV:   4    -0.587767315564E+02    0.11585E-05   -0.47427E-06  5684   0.138E-02    0.386E-03
DAV:   5    -0.587767313614E+02    0.19506E-06   -0.72909E-07  5588   0.509E-03    0.154E-03
DAV:   6    -0.587767313957E+02   -0.34337E-07   -0.10989E-07  5748   0.249E-03    0.467E-04
DAV:   7    -0.587767314168E+02   -0.21058E-07   -0.25332E-08  4588   0.116E-03    0.205E-04
DAV:   8    -0.587767314164E+02    0.37994E-09   -0.41200E-09  2728   0.526E-04
  11 F= -.58776731E+02 E0= -.58776164E+02  d E =-.136540E-03
 curvature:  -2.14 expect dE=-0.119E-02 dE for cont linesearch -0.289E-08
 trial: gam= 2.68141 g(F)=  0.479E-03 g(S)=  0.785E-04 ort =-0.966E-06 (trialstep = 0.503E-01)
 search vector abs. value=  0.551E-02
 bond charge predicted
       N       E                     dE             d eps       ncg     rms          rms(c)
DAV:   1    -0.587767720423E+02   -0.40626E-04   -0.91744E-04  4488   0.203E-01    0.168E-02
DAV:   2    -0.587767620784E+02    0.99639E-05   -0.24468E-05  4520   0.338E-02    0.767E-03
DAV:   3    -0.587767594022E+02    0.26762E-05   -0.96978E-06  4688   0.179E-02    0.270E-03
DAV:   4    -0.587767592295E+02    0.17270E-06   -0.56245E-07  5804   0.490E-03    0.151E-03
DAV:   5    -0.587767591618E+02    0.67765E-07   -0.93912E-08  5508   0.179E-03    0.565E-04
DAV:   6    -0.587767591366E+02    0.25195E-07   -0.11553E-08  2924   0.845E-04    0.185E-04
DAV:   7    -0.587767591271E+02    0.95033E-08   -0.41444E-09  2616   0.471E-04
  12 F= -.58776759E+02 E0= -.58776193E+02  d E =-.277107E-04
 ZBRENT: can't locate minimum, use default step
 trial-energy change:   -0.000028  1 .order   -0.000028   -0.000028   -0.000027
 step:   0.2012(harm=  2.0917)  dis= 0.00093  next Energy=   -58.777311 (dE=-0.580E-03)
 bond charge predicted
       N       E                     dE             d eps       ncg     rms          rms(c)
DAV:   1    -0.587769544488E+02   -0.19531E-03   -0.82475E-03  4480   0.609E-01    0.503E-02
DAV:   2    -0.587768635935E+02    0.90855E-04   -0.21982E-04  4512   0.101E-01    0.230E-02
DAV:   3    -0.587768397747E+02    0.23819E-04   -0.87251E-05  4664   0.535E-02    0.808E-03
DAV:   4    -0.587768385716E+02    0.12031E-05   -0.50551E-06  5804   0.147E-02    0.451E-03
DAV:   5    -0.587768381771E+02    0.39450E-06   -0.84991E-07  5508   0.538E-03    0.169E-03
DAV:   6    -0.587768380762E+02    0.10087E-06   -0.12534E-07  5944   0.255E-03    0.576E-04
DAV:   7    -0.587768380443E+02    0.31920E-07   -0.25144E-08  4564   0.116E-03    0.193E-04
DAV:   8    -0.587768380431E+02    0.12192E-08   -0.45180E-09  2784   0.531E-04
  13 F= -.58776838E+02 E0= -.58776276E+02  d E =-.106627E-03
 curvature:  -1.48 expect dE=-0.690E-03 dE for cont linesearch -0.672E-04
 ZBRENT: increasing intervall
 opt :   0.5029  next Energy=   -58.776977 (dE=-0.245E-03)
 bond charge predicted
       N       E                     dE             d eps       ncg     rms          rms(c)
DAV:   1    -0.587774407227E+02   -0.60268E-03   -0.32956E-02  4480   0.122E+00    0.100E-01
DAV:   2    -0.587770768949E+02    0.36383E-03   -0.87698E-04  4496   0.202E-01    0.460E-02
DAV:   3    -0.587769819452E+02    0.94950E-04   -0.34838E-04  4660   0.107E-01    0.161E-02
DAV:   4    -0.587769774953E+02    0.44499E-05   -0.20174E-05  5792   0.293E-02    0.899E-03
DAV:   5    -0.587769761433E+02    0.13521E-05   -0.33919E-06  5516   0.107E-02    0.338E-03
DAV:   6    -0.587769758665E+02    0.27681E-06   -0.49971E-07  5944   0.509E-03    0.115E-03
DAV:   7    -0.587769757890E+02    0.77409E-07   -0.10524E-07  5608   0.232E-03    0.388E-04
DAV:   8    -0.587769757838E+02    0.52537E-08   -0.15103E-08  3468   0.955E-04
  14 F= -.58776976E+02 E0= -.58776422E+02  d E =-.244367E-03
 curvature:  -3.05 expect dE=-0.122E-02 dE for cont linesearch -0.966E-04
 ZBRENT: increasing intervall
 opt :   1.1064  next Energy=   -58.777178 (dE=-0.447E-03)
 bond charge predicted
       N       E                     dE             d eps       ncg     rms          rms(c)
DAV:   1    -0.587790310115E+02   -0.20552E-02   -0.13159E-01  4480   0.243E+00    0.200E-01
DAV:   2    -0.587775798413E+02    0.14512E-02   -0.34898E-03  4496   0.404E-01    0.918E-02
DAV:   3    -0.587772006904E+02    0.37915E-03   -0.13896E-03  4648   0.214E-01    0.321E-02
DAV:   4    -0.587771836652E+02    0.17025E-04   -0.80396E-05  5796   0.585E-02    0.179E-02
DAV:   5    -0.587771787324E+02    0.49327E-05   -0.13527E-05  5520   0.214E-02    0.672E-03
DAV:   6    -0.587771778810E+02    0.85141E-06   -0.19962E-06  5928   0.102E-02    0.228E-03
DAV:   7    -0.587771776676E+02    0.21342E-06   -0.42154E-07  5608   0.464E-03    0.779E-04
DAV:   8    -0.587771776495E+02    0.18104E-07   -0.70171E-08  5684   0.191E-03    0.437E-04
DAV:   9    -0.587771776301E+02    0.19393E-07   -0.36687E-08  4564   0.151E-03    0.186E-04
DAV:  10    -0.587771776312E+02   -0.10750E-08   -0.29440E-09  3060   0.475E-04
  15 F= -.58777178E+02 E0= -.58776639E+02  d E =-.446215E-03
 curvature:  -6.39 expect dE=-0.337E-02 dE for cont linesearch -0.719E-04
 ZBRENT: increasing intervall
 opt :   2.3134  next Energy=   -58.777275 (dE=-0.543E-03)
 bond charge predicted
       N       E                     dE             d eps       ncg     rms          rms(c)
DAV:   1    -0.587846396193E+02   -0.74620E-02   -0.52454E-01  4480   0.485E+00    0.397E-01
DAV:   2    -0.587788841291E+02    0.57555E-02   -0.13818E-02  4496   0.804E-01    0.183E-01
DAV:   3    -0.587773698506E+02    0.15143E-02   -0.55281E-03  4648   0.426E-01    0.635E-02
DAV:   4    -0.587773037945E+02    0.66056E-04   -0.31910E-04  5796   0.116E-01    0.353E-02
DAV:   5    -0.587772853019E+02    0.18493E-04   -0.53743E-05  5516   0.427E-02    0.133E-02
DAV:   6    -0.587772824390E+02    0.28629E-05   -0.79373E-06  5896   0.203E-02    0.452E-03
DAV:   7    -0.587772817745E+02    0.66455E-06   -0.16872E-06  5612   0.931E-03    0.157E-03
DAV:   8    -0.587772817022E+02    0.72229E-07   -0.27983E-07  5696   0.384E-03    0.880E-04
DAV:   9    -0.587772816416E+02    0.60601E-07   -0.15244E-07  5272   0.304E-03    0.381E-04
DAV:  10    -0.587772816424E+02   -0.71168E-09   -0.10485E-08  4064   0.883E-04
  16 F= -.58777282E+02 E0= -.58776770E+02  d E =-.550226E-03
 curvature:  -8.64 expect dE=-0.159E-01 dE for cont linesearch -0.984E-05
 trial: gam= 3.47841 g(F)=  0.170E-02 g(S)=  0.137E-03 ort =-0.792E-04 (trialstep = 0.408E-01)
 search vector abs. value=  0.680E-01
 bond charge predicted
       N       E                     dE             d eps       ncg     rms          rms(c)
DAV:   1    -0.587774464703E+02   -0.16483E-03   -0.69759E-03  4480   0.559E-01    0.473E-02
DAV:   2    -0.587773658476E+02    0.80623E-04   -0.19241E-04  4544   0.938E-02    0.213E-02
DAV:   3    -0.587773450143E+02    0.20833E-04   -0.75298E-05  4680   0.494E-02    0.709E-03
DAV:   4    -0.587773438666E+02    0.11477E-05   -0.42895E-06  5628   0.135E-02    0.386E-03
DAV:   5    -0.587773434949E+02    0.37174E-06   -0.70222E-07  5512   0.489E-03    0.154E-03
DAV:   6    -0.587773433916E+02    0.10325E-06   -0.93287E-08  5728   0.231E-03    0.464E-04
DAV:   7    -0.587773433607E+02    0.30948E-07   -0.21142E-08  4256   0.106E-03    0.187E-04
DAV:   8    -0.587773433620E+02   -0.13194E-08   -0.33028E-09  2720   0.474E-04
  17 F= -.58777343E+02 E0= -.58776836E+02  d E =-.617196E-04
 ZBRENT: can't locate minimum, use default step
 trial-energy change:   -0.000062  1 .order   -0.000062   -0.000064   -0.000059
 step:   0.1631(harm=  0.5871)  dis= 0.00229  next Energy=   -58.777741 (dE=-0.459E-03)
 bond charge predicted
       N       E                     dE             d eps       ncg     rms          rms(c)
DAV:   1    -0.587784258933E+02   -0.10825E-02   -0.62687E-02  4480   0.167E+00    0.141E-01
DAV:   2    -0.587776997733E+02    0.72612E-03   -0.17246E-03  4496   0.281E-01    0.637E-02
DAV:   3    -0.587775133925E+02    0.18638E-03   -0.67649E-04  4612   0.148E-01    0.212E-02
DAV:   4    -0.587775042278E+02    0.91647E-05   -0.38499E-05  5628   0.403E-02    0.115E-02
DAV:   5    -0.587775015933E+02    0.26345E-05   -0.63337E-06  5508   0.147E-02    0.461E-03
DAV:   6    -0.587775010651E+02    0.52822E-06   -0.84257E-07  5860   0.695E-03    0.139E-03
DAV:   7    -0.587775009332E+02    0.13187E-06   -0.20179E-07  5620   0.320E-03    0.563E-04
DAV:   8    -0.587775009313E+02    0.19268E-08   -0.23791E-08  4164   0.122E-03
  18 F= -.58777501E+02 E0= -.58777008E+02  d E =-.219289E-03
 curvature:  -5.07 expect dE=-0.608E-02 dE for cont linesearch -0.952E-04
 ZBRENT: increasing intervall
 opt :   0.4078  next Energy=   -58.777697 (dE=-0.416E-03)
 bond charge predicted
       N       E                     dE             d eps       ncg     rms          rms(c)
DAV:   1    -0.587813702669E+02   -0.38693E-02   -0.24998E-01  4480   0.334E+00    0.281E-01
DAV:   2    -0.587784832463E+02    0.28870E-02   -0.68455E-03  4488   0.560E-01    0.127E-01
DAV:   3    -0.587777394945E+02    0.74375E-03   -0.26939E-03  4616   0.295E-01    0.421E-02
DAV:   4    -0.587777041955E+02    0.35299E-04   -0.15322E-04  5620   0.804E-02    0.228E-02
DAV:   5    -0.587776944619E+02    0.97336E-05   -0.25206E-05  5504   0.293E-02    0.914E-03
DAV:   6    -0.587776927576E+02    0.17043E-05   -0.33439E-06  5840   0.139E-02    0.276E-03
DAV:   7    -0.587776923714E+02    0.38620E-06   -0.80917E-07  5620   0.642E-03    0.113E-03
DAV:   8    -0.587776923531E+02    0.18310E-07   -0.10328E-07  5688   0.246E-03    0.535E-04
DAV:   9    -0.587776923226E+02    0.30518E-07   -0.65440E-08  5156   0.201E-03    0.263E-04
DAV:  10    -0.587776923258E+02   -0.31673E-08   -0.42541E-09  3564   0.565E-04
  19 F= -.58777692E+02 E0= -.58777226E+02  d E =-.410683E-03
 curvature: -10.47 expect dE=-0.866E-02 dE for cont linesearch -0.314E-04
 ZBRENT: increasing intervall
 opt :   0.8971  next Energy=   -58.777582 (dE=-0.300E-03)
 bond charge predicted
       N       E                     dE             d eps       ncg     rms          rms(c)
DAV:   1    -0.587921268296E+02   -0.14435E-01   -0.99414E-01  4480   0.665E+00    0.557E-01
DAV:   2    -0.587807351822E+02    0.11392E-01   -0.26978E-02  4488   0.111E+00    0.253E-01
DAV:   3    -0.587777684644E+02    0.29667E-02   -0.10695E-02  4616   0.587E-01    0.830E-02
DAV:   4    -0.587776314580E+02    0.13701E-03   -0.60680E-04  5624   0.160E-01    0.449E-02
DAV:   5    -0.587775948902E+02    0.36568E-04   -0.10016E-04  5508   0.583E-02    0.180E-02
DAV:   6    -0.587775889949E+02    0.58953E-05   -0.13198E-05  5832   0.277E-02    0.546E-03
DAV:   7    -0.587775877034E+02    0.12915E-05   -0.32513E-06  5612   0.129E-02    0.229E-03
DAV:   8    -0.587775875987E+02    0.10471E-06   -0.42378E-07  5664   0.502E-03    0.107E-03
DAV:   9    -0.587775874963E+02    0.10234E-06   -0.26496E-07  5180   0.404E-03    0.526E-04
DAV:  10    -0.587775875021E+02   -0.58139E-08   -0.20467E-08  4676   0.116E-03
  20 F= -.58777588E+02 E0= -.58777168E+02  d E =-.305860E-03
 curvature:  36.93 expect dE= 0.833E-01 dE for cont linesearch  0.398E-03
 ZBRENT: bracketing found
 ZBRENT: interpolating
 opt :   0.5768  next Energy=   -58.777730 (dE=-0.449E-03)
 bond charge predicted
       N       E                     dE             d eps       ncg     rms          rms(c)
DAV:   1    -0.587839903088E+02   -0.64028E-02   -0.42661E-01  4480   0.438E+00    0.371E-01
DAV:   2    -0.587790536841E+02    0.49366E-02   -0.11867E-02  4492   0.734E-01    0.165E-01
DAV:   3    -0.587778040699E+02    0.12496E-02   -0.45980E-03  4608   0.386E-01    0.560E-02
DAV:   4    -0.587777461099E+02    0.57960E-04   -0.26351E-04  5620   0.105E-01    0.306E-02
DAV:   5    -0.587777300935E+02    0.16016E-04   -0.42734E-05  5520   0.379E-02    0.122E-02
DAV:   6    -0.587777279330E+02    0.21605E-05   -0.55338E-06  5888   0.178E-02    0.355E-03
DAV:   7    -0.587777276339E+02    0.29906E-06   -0.13745E-06  5644   0.814E-03    0.148E-03
DAV:   8    -0.587777275653E+02    0.68634E-07   -0.17015E-07  5724   0.313E-03    0.698E-04
DAV:   9    -0.587777275525E+02    0.12860E-07   -0.11154E-07  5176   0.261E-03    0.352E-04
DAV:  10    -0.587777275480E+02    0.44881E-08   -0.67611E-09  3796   0.700E-04
  21 F= -.58777728E+02 E0= -.58777277E+02  d E =-.445906E-03
 curvature:  -3.54 expect dE=-0.356E-02 dE for cont linesearch -0.152E-08
 trial: gam= 0.31058 g(F)=  0.971E-03 g(S)=  0.334E-04 ort =-0.541E-05 (trialstep = 0.148E+00)
 search vector abs. value=  0.756E-02
 bond charge predicted
       N       E                     dE             d eps       ncg     rms          rms(c)
DAV:   1    -0.587779903495E+02   -0.26280E-03   -0.87533E-03  4480   0.650E-01    0.564E-02
DAV:   2    -0.587778752163E+02    0.11513E-03   -0.27570E-04  4672   0.118E-01    0.259E-02
DAV:   3    -0.587778484735E+02    0.26743E-04   -0.11982E-04  5292   0.626E-02    0.839E-03
DAV:   4    -0.587778466581E+02    0.18154E-05   -0.66222E-06  6024   0.180E-02    0.437E-03
DAV:   5    -0.587778459675E+02    0.69059E-06   -0.18305E-06  5404   0.747E-03    0.169E-03
DAV:   6    -0.587778458320E+02    0.13541E-06   -0.15398E-07  5496   0.291E-03    0.739E-04
DAV:   7    -0.587778457619E+02    0.70189E-07   -0.53645E-08  5516   0.165E-03    0.258E-04
DAV:   8    -0.587778457593E+02    0.25268E-08   -0.52332E-09  2872   0.596E-04
  22 F= -.58777846E+02 E0= -.58777409E+02  d E =-.118211E-03
 trial-energy change:   -0.000118  1 .order   -0.000118   -0.000148   -0.000088
 step:   0.3663(harm=  0.3663)  dis= 0.00134  next Energy=   -58.777911 (dE=-0.184E-03)
 bond charge predicted
       N       E                     dE             d eps       ncg     rms          rms(c)
DAV:   1    -0.587782246781E+02   -0.37892E-03   -0.19025E-02  4480   0.959E-01    0.832E-02
DAV:   2    -0.587779741741E+02    0.25050E-03   -0.59895E-04  4684   0.174E-01    0.382E-02
DAV:   3    -0.587779161923E+02    0.57982E-04   -0.26055E-04  5288   0.923E-02    0.124E-02
DAV:   4    -0.587779123496E+02    0.38428E-05   -0.14407E-05  6020   0.265E-02    0.643E-03
DAV:   5    -0.587779109309E+02    0.14186E-05   -0.39853E-06  5416   0.110E-02    0.248E-03
DAV:   6    -0.587779106861E+02    0.24482E-06   -0.33566E-07  5496   0.430E-03    0.109E-03
DAV:   7    -0.587779105689E+02    0.11723E-06   -0.11794E-07  5708   0.244E-03    0.383E-04
DAV:   8    -0.587779105641E+02    0.48121E-08   -0.12067E-08  3412   0.897E-04
  23 F= -.58777911E+02 E0= -.58777493E+02  d E =-.183016E-03
 curvature:  -1.38 expect dE=-0.650E-03 dE for cont linesearch -0.754E-11
 trial: gam= 0.48332 g(F)=  0.438E-03 g(S)=  0.324E-04 ort =-0.203E-06 (trialstep = 0.192E+00)
 search vector abs. value=  0.224E-02
 bond charge predicted
       N       E                     dE             d eps       ncg     rms          rms(c)
DAV:   1    -0.587780347029E+02   -0.12413E-03   -0.55347E-03  4480   0.526E-01    0.375E-02
DAV:   2    -0.587779838429E+02    0.50860E-04   -0.15569E-04  5272   0.866E-02    0.176E-02
DAV:   3    -0.587779700313E+02    0.13812E-04   -0.53108E-05  5144   0.424E-02    0.580E-03
DAV:   4    -0.587779693867E+02    0.64454E-06   -0.32253E-06  6136   0.119E-02    0.311E-03
DAV:   5    -0.587779691848E+02    0.20193E-06   -0.53203E-07  5604   0.432E-03    0.119E-03
DAV:   6    -0.587779691247E+02    0.60117E-07   -0.58954E-08  5676   0.183E-03    0.469E-04
DAV:   7    -0.587779691017E+02    0.23020E-07   -0.15674E-08  3644   0.994E-04    0.159E-04
DAV:   8    -0.587779690986E+02    0.30609E-08   -0.28970E-09  2844   0.478E-04
  24 F= -.58777969E+02 E0= -.58777561E+02  d E =-.585345E-04
 trial-energy change:   -0.000059  1 .order   -0.000058   -0.000090   -0.000025
 step:   0.2601(harm=  0.2668)  dis= 0.00060  next Energy=   -58.777974 (dE=-0.631E-04)
 bond charge predicted
       N       E                     dE             d eps       ncg     rms          rms(c)
DAV:   1    -0.587779827103E+02   -0.13609E-04   -0.70586E-04  4496   0.188E-01    0.134E-02
DAV:   2    -0.587779763754E+02    0.63349E-05   -0.19861E-05  5272   0.309E-02    0.629E-03
DAV:   3    -0.587779746313E+02    0.17441E-05   -0.67703E-06  5148   0.151E-02    0.207E-03
DAV:   4    -0.587779745327E+02    0.98641E-07   -0.41149E-07  6136   0.426E-03    0.111E-03
DAV:   5    -0.587779745011E+02    0.31516E-07   -0.67848E-08  5552   0.154E-03    0.425E-04
DAV:   6    -0.587779744867E+02    0.14493E-07   -0.63490E-09  2972   0.651E-04    0.166E-04
DAV:   7    -0.587779744801E+02    0.65356E-08   -0.35558E-09  2724   0.438E-04
  25 F= -.58777974E+02 E0= -.58777570E+02  d E =-.639160E-04
 curvature:  -0.63 expect dE=-0.722E-04 dE for cont linesearch -0.362E-07
 trial: gam= 0.21760 g(F)=  0.112E-03 g(S)=  0.236E-05 ort = 0.113E-04 (trialstep = 0.205E+00)
 search vector abs. value=  0.226E-03
 bond charge predicted
       N       E                     dE             d eps       ncg     rms          rms(c)
DAV:   1    -0.587779970889E+02   -0.22602E-04   -0.68757E-04  4480   0.201E-01    0.989E-03
DAV:   2    -0.587779946692E+02    0.24197E-05   -0.14682E-05  6112   0.276E-02    0.529E-03
DAV:   3    -0.587779938013E+02    0.86787E-06   -0.36307E-06  5572   0.120E-02    0.202E-03
DAV:   4    -0.587779937648E+02    0.36521E-07   -0.33111E-07  6100   0.397E-03    0.117E-03
DAV:   5    -0.587779937611E+02    0.36632E-08   -0.60993E-08  5632   0.150E-03
  26 F= -.58777994E+02 E0= -.58777590E+02  d E =-.192810E-04
 trial-energy change:   -0.000019  1 .order   -0.000019   -0.000024   -0.000014
 step:   0.4261(harm=  0.4908)  dis= 0.00041  next Energy=   -58.778002 (dE=-0.271E-04)
 bond charge predicted
       N       E                     dE             d eps       ncg     rms          rms(c)
DAV:   1    -0.587780070822E+02   -0.13317E-04   -0.79419E-04  4480   0.216E-01    0.106E-02
DAV:   2    -0.587780042479E+02    0.28343E-05   -0.16926E-05  6112   0.296E-02    0.570E-03
DAV:   3    -0.587780032375E+02    0.10105E-05   -0.41812E-06  5572   0.128E-02    0.220E-03
DAV:   4    -0.587780031934E+02    0.44033E-07   -0.38226E-07  6092   0.425E-03    0.127E-03
DAV:   5    -0.587780031875E+02    0.59085E-08   -0.70572E-08  5884   0.161E-03
  27 F= -.58778003E+02 E0= -.58777601E+02  d E =-.287074E-04
 curvature:  -0.45 expect dE=-0.152E-04 dE for cont linesearch -0.459E-06
 ZBRENT: extrapolating
 opt :   0.4894  next Energy=   -58.778004 (dE=-0.292E-04)
 bond charge predicted
       N       E                     dE             d eps       ncg     rms          rms(c)
DAV:   1    -0.587780040047E+02   -0.81127E-06   -0.65284E-05  4504   0.621E-02    0.307E-03
DAV:   2    -0.587780037981E+02    0.20655E-06   -0.13855E-06  6124   0.847E-03    0.165E-03
DAV:   3    -0.587780037254E+02    0.72711E-07   -0.34214E-07  5556   0.365E-03    0.651E-04
DAV:   4    -0.587780037221E+02    0.32971E-08   -0.30386E-08  4688   0.121E-03
  28 F= -.58778004E+02 E0= -.58777602E+02  d E =-.292420E-04
 curvature:  -0.47 expect dE=-0.207E-04 dE for cont linesearch -0.683E-12
 trial: gam= 0.41709 g(F)=  0.395E-04 g(S)=  0.447E-05 ort = 0.181E-07 (trialstep = 0.262E+00)
 search vector abs. value=  0.833E-04
 bond charge predicted
       N       E                     dE             d eps       ncg     rms          rms(c)
DAV:   1    -0.587780129297E+02   -0.92043E-05   -0.47596E-04  4488   0.171E-01    0.651E-03
DAV:   2    -0.587780124901E+02    0.43955E-06   -0.86197E-06  5772   0.210E-02    0.377E-03
DAV:   3    -0.587780121470E+02    0.34312E-06   -0.10052E-06  5836   0.671E-03    0.166E-03
DAV:   4    -0.587780120811E+02    0.65900E-07   -0.12683E-07  5668   0.234E-03    0.746E-04
DAV:   5    -0.587780120555E+02    0.25612E-07   -0.12302E-08  2936   0.789E-04    0.229E-04
DAV:   6    -0.587780120467E+02    0.87666E-08   -0.25529E-09  2592   0.387E-04
  29 F= -.58778012E+02 E0= -.58777609E+02  d E =-.832460E-05
 trial-energy change:   -0.000008  1 .order   -0.000008   -0.000012   -0.000005
 step:   0.5507(harm=  0.4874)  dis= 0.00049  next Energy=   -58.778015 (dE=-0.111E-04)
 bond charge predicted
       N       E                     dE             d eps       ncg     rms          rms(c)
DAV:   1    -0.587780151580E+02   -0.31025E-05   -0.57758E-04  4488   0.188E-01    0.716E-03
DAV:   2    -0.587780146210E+02    0.53695E-06   -0.10477E-05  5740   0.231E-02    0.414E-03
DAV:   3    -0.587780142120E+02    0.40902E-06   -0.12282E-06  5824   0.742E-03    0.182E-03
DAV:   4    -0.587780141370E+02    0.75016E-07   -0.15354E-07  5716   0.258E-03    0.823E-04
DAV:   5    -0.587780141086E+02    0.28373E-07   -0.14997E-08  3080   0.870E-04    0.252E-04
DAV:   6    -0.587780140992E+02    0.94140E-08   -0.30671E-09  2620   0.424E-04
  30 F= -.58778014E+02 E0= -.58777609E+02  d E =-.103771E-04
 curvature:  -0.42 expect dE=-0.601E-05 dE for cont linesearch -0.154E-06
 ZBRENT: interpolating
 opt :   0.4893  next Energy=   -58.778014 (dE=-0.105E-04)
 bond charge predicted
       N       E                     dE             d eps       ncg     rms          rms(c)
DAV:   1    -0.587780143031E+02   -0.19444E-06   -0.26157E-05  4488   0.401E-02    0.154E-03
DAV:   2    -0.587780142756E+02    0.27416E-07   -0.47724E-07  5832   0.493E-03    0.892E-04
DAV:   3    -0.587780142702E+02    0.54513E-08   -0.55584E-08  5228   0.158E-03
  31 F= -.58778014E+02 E0= -.58777610E+02  d E =-.105481E-04
 curvature:  -0.46 expect dE=-0.505E-05 dE for cont linesearch -0.174E-09
 trial: gam= 0.23163 g(F)=  0.956E-05 g(S)=  0.131E-05 ort =-0.177E-06 (trialstep = 0.308E+00)
 search vector abs. value=  0.153E-04
 bond charge predicted
       N       E                     dE             d eps       ncg     rms          rms(c)
DAV:   1    -0.587780168396E+02   -0.25640E-05   -0.90326E-05  4488   0.754E-02    0.231E-03
DAV:   2    -0.587780167751E+02    0.64538E-07   -0.12001E-06  5584   0.768E-03    0.142E-03
DAV:   3    -0.587780166899E+02    0.85158E-07   -0.11755E-07  5560   0.231E-03    0.597E-04
DAV:   4    -0.587780166609E+02    0.29089E-07   -0.11855E-08  2856   0.801E-04    0.258E-04
DAV:   5    -0.587780166411E+02    0.19779E-07   -0.39630E-09  2552   0.448E-04    0.672E-05
DAV:   6    -0.587780166388E+02    0.22601E-08   -0.76967E-10  2472   0.221E-04
  32 F= -.58778017E+02 E0= -.58777611E+02  d E =-.236862E-05
 trial-energy change:   -0.000002  1 .order   -0.000003   -0.000003   -0.000002
 step:   0.6446(harm=  0.6446)  dis= 0.00026  next Energy=   -58.778018 (dE=-0.349E-05)
 bond charge predicted
       N       E                     dE             d eps       ncg     rms          rms(c)
DAV:   1    -0.587780176236E+02   -0.98255E-06   -0.10844E-04  4488   0.826E-02    0.253E-03
DAV:   2    -0.587780175523E+02    0.71359E-07   -0.14495E-06  5568   0.845E-03    0.156E-03
DAV:   3    -0.587780174533E+02    0.98962E-07   -0.14138E-07  5596   0.254E-03    0.660E-04
DAV:   4    -0.587780174197E+02    0.33593E-07   -0.14378E-08  2972   0.881E-04    0.284E-04
DAV:   5    -0.587780173976E+02    0.22131E-07   -0.48614E-09  2596   0.495E-04    0.757E-05
DAV:   6    -0.587780173949E+02    0.27082E-08   -0.93429E-10  2544   0.243E-04
  33 F= -.58778017E+02 E0= -.58777610E+02  d E =-.312467E-05
 curvature:  -0.45 expect dE=-0.659E-05 dE for cont linesearch -0.179E-11
 trial: gam= 1.33433 g(F)=  0.907E-05 g(S)=  0.545E-05 ort = 0.775E-08 (trialstep = 0.137E+00)
 search vector abs. value=  0.417E-04
 bond charge predicted
       N       E                     dE             d eps       ncg     rms          rms(c)
DAV:   1    -0.587780190767E+02   -0.16791E-05   -0.51158E-05  4488   0.557E-02    0.182E-03
DAV:   2    -0.587780191107E+02   -0.34040E-07   -0.78490E-07  5416   0.643E-03    0.118E-03
DAV:   3    -0.587780190930E+02    0.17724E-07   -0.11101E-07  6056   0.230E-03    0.417E-04
DAV:   4    -0.587780190856E+02    0.74201E-08   -0.15759E-08  2808   0.938E-04
  34 F= -.58778019E+02 E0= -.58777611E+02  d E =-.169072E-05
 trial-energy change:   -0.000002  1 .order   -0.000002   -0.000002   -0.000001
 step:   0.4258(harm=  0.4258)  dis= 0.00026  next Energy=   -58.778020 (dE=-0.309E-05)
 bond charge predicted
       N       E                     dE             d eps       ncg     rms          rms(c)
DAV:   1    -0.587780205734E+02   -0.14804E-05   -0.22660E-04  4488   0.117E-01    0.384E-03
DAV:   2    -0.587780206563E+02   -0.82915E-07   -0.34869E-06  5492   0.136E-02    0.249E-03
DAV:   3    -0.587780205691E+02    0.87264E-07   -0.50153E-07  6044   0.487E-03    0.889E-04
DAV:   4    -0.587780205483E+02    0.20787E-07   -0.82536E-08  5312   0.201E-03    0.508E-04
DAV:   5    -0.587780205443E+02    0.40015E-08   -0.95799E-09  2776   0.734E-04
  35 F= -.58778021E+02 E0= -.58777611E+02  d E =-.314940E-05
 curvature:  -0.61 expect dE=-0.858E-05 dE for cont linesearch -0.308E-11
 trial: gam= 0.97383 g(F)=  0.105E-04 g(S)=  0.357E-05 ort =-0.145E-07 (trialstep = 0.152E+00)
 search vector abs. value=  0.536E-04
 bond charge predicted
       N       E                     dE             d eps       ncg     rms          rms(c)
DAV:   1    -0.587780225105E+02   -0.19622E-05   -0.67275E-05  4488   0.614E-02    0.236E-03
DAV:   2    -0.587780225170E+02   -0.64456E-08   -0.84244E-07  5036   0.633E-03    0.143E-03
DAV:   3    -0.587780225157E+02    0.12556E-08   -0.93672E-08  5948   0.213E-03
  36 F= -.58778023E+02 E0= -.58777612E+02  d E =-.197144E-05
 ZBRENT: can't locate minimum, use default step
 trial-energy change:   -0.000002  1 .order   -0.000002   -0.000002   -0.000002
 step:   0.6069(harm=  0.8140)  dis= 0.00031  next Energy=   -58.778026 (dE=-0.571E-05)
 bond charge predicted
       N       E                     dE             d eps       ncg     rms          rms(c)
DAV:   1    -0.587780263256E+02   -0.38087E-05   -0.60588E-04  4488   0.184E-01    0.721E-03
DAV:   2    -0.587780262446E+02    0.81026E-07   -0.76070E-06  5024   0.191E-02    0.435E-03
DAV:   3    -0.587780260506E+02    0.19399E-06   -0.85778E-07  5924   0.646E-03    0.127E-03
DAV:   4    -0.587780260591E+02   -0.85345E-08   -0.12518E-07  5848   0.234E-03    0.474E-04
DAV:   5    -0.587780260710E+02   -0.11875E-07   -0.11020E-08  2888   0.782E-04    0.208E-04
DAV:   6    -0.587780260749E+02   -0.39281E-08   -0.37056E-09  2640   0.437E-04
  37 F= -.58778026E+02 E0= -.58777614E+02  d E =-.553067E-05
 curvature:  -1.40 expect dE=-0.218E-04 dE for cont linesearch -0.309E-06
 ZBRENT: extrapolating
 opt :   0.8031  next Energy=   -58.778026 (dE=-0.587E-05)
 bond charge predicted
       N       E                     dE             d eps       ncg     rms          rms(c)
DAV:   1    -0.587780264905E+02   -0.41951E-06   -0.11258E-04  4488   0.794E-02    0.306E-03
DAV:   2    -0.587780264909E+02   -0.39176E-09   -0.14134E-06  5048   0.821E-03    0.185E-03
DAV:   3    -0.587780264767E+02    0.14224E-07   -0.15776E-07  5948   0.277E-03    0.547E-04
DAV:   4    -0.587780264857E+02   -0.90267E-08   -0.21159E-08  3936   0.998E-04
  38 F= -.58778026E+02 E0= -.58777614E+02  d E =-.594144E-05
 curvature:  -1.53 expect dE=-0.394E-04 dE for cont linesearch -0.134E-09
 trial: gam= 1.82751 g(F)=  0.191E-04 g(S)=  0.667E-05 ort = 0.686E-07 (trialstep = 0.737E-01)
 search vector abs. value=  0.205E-03
 bond charge predicted
       N       E                     dE             d eps       ncg     rms          rms(c)
DAV:   1    -0.587780283636E+02   -0.18869E-05   -0.63028E-05  4488   0.590E-02    0.214E-03
DAV:   2    -0.587780283650E+02   -0.14343E-08   -0.72992E-07  4984   0.593E-03    0.129E-03
DAV:   3    -0.587780283488E+02    0.16164E-07   -0.50547E-08  5248   0.162E-03    0.396E-04
DAV:   4    -0.587780283498E+02   -0.91609E-09   -0.58421E-09  2616   0.553E-04
  39 F= -.58778028E+02 E0= -.58777616E+02  d E =-.186406E-05
 ZBRENT: can't locate minimum, use default step
 trial-energy change:   -0.000002  1 .order   -0.000002   -0.000002   -0.000002
 step:   0.2948(harm=  1.5648)  dis= 0.00026  next Energy=   -58.778047 (dE=-0.203E-04)
 bond charge predicted
       N       E                     dE             d eps       ncg     rms          rms(c)
DAV:   1    -0.587780335484E+02   -0.51995E-05   -0.56831E-04  4488   0.177E-01    0.642E-03
DAV:   2    -0.587780336231E+02   -0.74782E-07   -0.65657E-06  4976   0.178E-02    0.386E-03
DAV:   3    -0.587780334413E+02    0.18184E-06   -0.46001E-07  5852   0.486E-03    0.118E-03
DAV:   4    -0.587780334350E+02    0.63226E-08   -0.57573E-08  5084   0.161E-03
  40 F= -.58778033E+02 E0= -.58777621E+02  d E =-.694928E-05
 curvature:  -1.70 expect dE=-0.324E-04 dE for cont linesearch -0.378E-05
 ZBRENT: increasing intervall
 opt :   0.7371  next Energy=   -58.778041 (dE=-0.149E-04)
 bond charge predicted
       N       E                     dE             d eps       ncg     rms          rms(c)
DAV:   1    -0.587780418618E+02   -0.84205E-05   -0.22737E-03  4480   0.354E-01    0.129E-02
DAV:   2    -0.587780422250E+02   -0.36328E-06   -0.26273E-05  4984   0.356E-02    0.773E-03
DAV:   3    -0.587780414629E+02    0.76218E-06   -0.18416E-06  5784   0.972E-03    0.236E-03
DAV:   4    -0.587780414271E+02    0.35759E-07   -0.23333E-07  5848   0.324E-03    0.732E-04
DAV:   5    -0.587780414264E+02    0.66075E-09   -0.18657E-08  3204   0.105E-03
  41 F= -.58778041E+02 E0= -.58777628E+02  d E =-.149407E-04
 curvature:  -3.58 expect dE=-0.665E-04 dE for cont linesearch -0.381E-05
 ZBRENT: increasing intervall
 opt :   1.6215  next Energy=   -58.778049 (dE=-0.222E-04)
 bond charge predicted
       N       E                     dE             d eps       ncg     rms          rms(c)
DAV:   1    -0.587780504920E+02   -0.90649E-05   -0.90957E-03  4480   0.708E-01    0.257E-02
DAV:   2    -0.587780519968E+02   -0.15049E-05   -0.10511E-04  4976   0.712E-02    0.154E-02
DAV:   3    -0.587780488809E+02    0.31160E-05   -0.74130E-06  5788   0.195E-02    0.472E-03
DAV:   4    -0.587780487110E+02    0.16992E-06   -0.93750E-07  5900   0.648E-03    0.146E-03
DAV:   5    -0.587780487078E+02    0.31503E-08   -0.84930E-08  5280   0.208E-03
  42 F= -.58778049E+02 E0= -.58777633E+02  d E =-.222221E-04
 curvature:  -6.82 expect dE=-0.343E-03 dE for cont linesearch -0.103E-06
 trial: gam= 1.90246 g(F)=  0.442E-04 g(S)=  0.611E-05 ort = 0.176E-05 (trialstep = 0.983E-01)
 search vector abs. value=  0.799E-03
 bond charge predicted
       N       E                     dE             d eps       ncg     rms          rms(c)
DAV:   1    -0.587780539187E+02   -0.52078E-05   -0.40636E-04  4504   0.149E-01    0.569E-03
DAV:   2    -0.587780538472E+02    0.71559E-07   -0.50757E-06  5144   0.157E-02    0.335E-03
DAV:   3    -0.587780536605E+02    0.18665E-06   -0.39551E-07  5228   0.439E-03    0.101E-03
DAV:   4    -0.587780536484E+02    0.12123E-07   -0.54617E-08  5260   0.156E-03    0.313E-04
DAV:   5    -0.587780536478E+02    0.65256E-09   -0.40104E-09  2656   0.489E-04
  43 F= -.58778054E+02 E0= -.58777637E+02  d E =-.493995E-05
 ZBRENT: can't locate minimum, use default step
 trial-energy change:   -0.000005  1 .order   -0.000005   -0.000005   -0.000005
 step:   0.3933(harm=  0.8589)  dis= 0.00066  next Energy=   -58.778072 (dE=-0.230E-04)
 bond charge predicted
       N       E                     dE             d eps       ncg     rms          rms(c)
DAV:   1    -0.587780675247E+02   -0.13876E-04   -0.36596E-03  4480   0.446E-01    0.172E-02
DAV:   2    -0.587780671065E+02    0.41823E-06   -0.45566E-05  5132   0.470E-02    0.101E-02
DAV:   3    -0.587780654633E+02    0.16432E-05   -0.33897E-06  5208   0.129E-02    0.304E-03
DAV:   4    -0.587780653474E+02    0.11593E-06   -0.46833E-07  5792   0.455E-03    0.903E-04
DAV:   5    -0.587780653417E+02    0.56300E-08   -0.36843E-08  5176   0.137E-03
  44 F= -.58778065E+02 E0= -.58777648E+02  d E =-.166339E-04
 curvature:  -4.00 expect dE=-0.112E-03 dE for cont linesearch -0.457E-05
 ZBRENT: increasing intervall
 opt :   0.9834  next Energy=   -58.778073 (dE=-0.243E-04)
 bond charge predicted
       N       E                     dE             d eps       ncg     rms          rms(c)
DAV:   1    -0.587780812417E+02   -0.15894E-04   -0.14641E-02  4480   0.892E-01    0.344E-02
DAV:   2    -0.587780796530E+02    0.15887E-05   -0.18240E-04  5140   0.941E-02    0.202E-02
DAV:   3    -0.587780730639E+02    0.65891E-05   -0.13581E-05  5208   0.259E-02    0.609E-03
DAV:   4    -0.587780726013E+02    0.46258E-06   -0.18812E-06  5796   0.911E-03    0.181E-03
DAV:   5    -0.587780725827E+02    0.18645E-07   -0.14987E-07  5780   0.275E-03    0.837E-04
DAV:   6    -0.587780725965E+02   -0.13765E-07   -0.42004E-08  4908   0.148E-03    0.342E-04
DAV:   7    -0.587780726050E+02   -0.85176E-08   -0.11200E-08  3300   0.770E-04
  45 F= -.58778073E+02 E0= -.58777652E+02  d E =-.238972E-04
 curvature:  -6.67 expect dE=-0.649E-03 dE for cont linesearch -0.185E-06
 trial: gam= 2.16833 g(F)=  0.905E-04 g(S)=  0.671E-05 ort =-0.470E-05 (trialstep = 0.574E-01)
 search vector abs. value=  0.383E-02
 bond charge predicted
       N       E                     dE             d eps       ncg     rms          rms(c)
DAV:   1    -0.587780776004E+02   -0.50039E-05   -0.65974E-04  4488   0.190E-01    0.744E-03
DAV:   2    -0.587780774958E+02    0.10456E-06   -0.80990E-06  5020   0.201E-02    0.436E-03
DAV:   3    -0.587780771770E+02    0.31882E-06   -0.78615E-07  5528   0.596E-03    0.118E-03
DAV:   4    -0.587780771514E+02    0.25520E-07   -0.86129E-08  5292   0.197E-03    0.426E-04
DAV:   5    -0.587780771464E+02    0.50361E-08   -0.11435E-08  2892   0.754E-04
  46 F= -.58778077E+02 E0= -.58777654E+02  d E =-.454142E-05
 ZBRENT: can't locate minimum, use default step
 trial-energy change:   -0.000005  1 .order   -0.000005   -0.000005   -0.000004
 step:   0.2296(harm=  0.3459)  dis= 0.00093  next Energy=   -58.778088 (dE=-0.151E-04)
 bond charge predicted
       N       E                     dE             d eps       ncg     rms          rms(c)
DAV:   1    -0.587780898434E+02   -0.12692E-04   -0.59395E-03  4488   0.569E-01    0.223E-02
DAV:   2    -0.587780889607E+02    0.88268E-06   -0.72939E-05  4988   0.603E-02    0.131E-02
DAV:   3    -0.587780860741E+02    0.28867E-05   -0.71726E-06  5516   0.180E-02    0.357E-03
DAV:   4    -0.587780858689E+02    0.20518E-06   -0.78908E-07  5416   0.594E-03    0.129E-03
DAV:   5    -0.587780858474E+02    0.21438E-07   -0.12484E-07  5552   0.225E-03    0.539E-04
DAV:   6    -0.587780858519E+02   -0.44529E-08   -0.11999E-08  3044   0.865E-04
  47 F= -.58778086E+02 E0= -.58777656E+02  d E =-.132469E-04
 curvature:  -6.38 expect dE=-0.227E-03 dE for cont linesearch -0.152E-05
 ZBRENT: increasing intervall
 opt :   0.5739  next Energy=   -58.778082 (dE=-0.909E-05)
 bond charge predicted
       N       E                     dE             d eps       ncg     rms          rms(c)
DAV:   1    -0.587780969330E+02   -0.11086E-04   -0.23766E-02  4480   0.114E+00    0.447E-02
DAV:   2    -0.587780935336E+02    0.33994E-05   -0.29189E-04  4980   0.121E-01    0.262E-02
DAV:   3    -0.587780819513E+02    0.11582E-04   -0.28514E-05  5508   0.359E-02    0.715E-03
DAV:   4    -0.587780811613E+02    0.79000E-06   -0.31346E-06  5404   0.118E-02    0.258E-03
DAV:   5    -0.587780810974E+02    0.63942E-07   -0.49322E-07  5596   0.448E-03    0.107E-03
DAV:   6    -0.587780811151E+02   -0.17729E-07   -0.54595E-08  5132   0.172E-03    0.475E-04
DAV:   7    -0.587780811279E+02   -0.12770E-07   -0.25783E-08  4032   0.112E-03    0.186E-04
DAV:   8    -0.587780811289E+02   -0.10252E-08   -0.34878E-09  2732   0.495E-04
  48 F= -.58778081E+02 E0= -.58777636E+02  d E =-.852389E-05
 curvature:  17.38 expect dE= 0.134E-02 dE for cont linesearch  0.142E-04
 ZBRENT: bracketing found
 ZBRENT: interpolating
 opt :   0.3505  next Energy=   -58.778088 (dE=-0.151E-04)
 bond charge predicted
       N       E                     dE             d eps       ncg     rms          rms(c)
DAV:   1    -0.587780940462E+02   -0.12918E-04   -0.10001E-02  4488   0.739E-01    0.290E-02
DAV:   2    -0.587780927403E+02    0.13059E-05   -0.12290E-04  4972   0.782E-02    0.170E-02
DAV:   3    -0.587780878561E+02    0.48841E-05   -0.12049E-05  5516   0.233E-02    0.463E-03
DAV:   4    -0.587780875570E+02    0.29916E-06   -0.13204E-06  5404   0.769E-03    0.167E-03
DAV:   5    -0.587780875540E+02    0.29756E-08   -0.20523E-07  5548   0.289E-03    0.695E-04
DAV:   6    -0.587780875612E+02   -0.72305E-08   -0.20481E-08  3652   0.110E-03
  49 F= -.58778088E+02 E0= -.58777652E+02  d E =-.149562E-04
 curvature:  -2.25 expect dE=-0.718E-04 dE for cont linesearch -0.723E-09
 trial: gam= 0.09417 g(F)=  0.289E-04 g(S)=  0.307E-05 ort =-0.111E-05 (trialstep = 0.116E+00)
 search vector abs. value=  0.657E-04
 bond charge predicted
       N       E                     dE             d eps       ncg     rms          rms(c)
DAV:   1    -0.587780906425E+02   -0.30885E-05   -0.70895E-05  4488   0.607E-02    0.290E-03
DAV:   2    -0.587780905463E+02    0.96237E-07   -0.13320E-06  5588   0.836E-03    0.162E-03
DAV:   3    -0.587780905065E+02    0.39798E-07   -0.24287E-07  5504   0.326E-03    0.524E-04
DAV:   4    -0.587780905126E+02   -0.60759E-08   -0.27601E-08  4260   0.114E-03
  50 F= -.58778091E+02 E0= -.58777654E+02  d E =-.295132E-05
 trial-energy change:   -0.000003  1 .order   -0.000003   -0.000004   -0.000002
 step:   0.2913(harm=  0.2913)  dis= 0.00016  next Energy=   -58.778092 (dE=-0.464E-05)
 bond charge predicted
       N       E                     dE             d eps       ncg     rms          rms(c)
DAV:   1    -0.587780924764E+02   -0.19699E-05   -0.16167E-04  4488   0.917E-02    0.438E-03
DAV:   2    -0.587780922673E+02    0.20911E-06   -0.30578E-06  5588   0.127E-02    0.244E-03
DAV:   3    -0.587780921631E+02    0.10417E-06   -0.56597E-07  5504   0.495E-03    0.787E-04
DAV:   4    -0.587780921713E+02   -0.81814E-08   -0.64870E-08  5340   0.173E-03
  51 F= -.58778092E+02 E0= -.58777653E+02  d E =-.461007E-05
 curvature:  -0.30 expect dE=-0.430E-05 dE for cont linesearch -0.978E-11
 trial: gam= 0.45128 g(F)=  0.125E-04 g(S)=  0.184E-05 ort = 0.462E-07 (trialstep = 0.151E+00)
 search vector abs. value=  0.277E-04
 bond charge predicted
       N       E                     dE             d eps       ncg     rms          rms(c)
DAV:   1    -0.587780941617E+02   -0.19986E-05   -0.34941E-05  4488   0.458E-02    0.219E-03
DAV:   2    -0.587780941686E+02   -0.68492E-08   -0.49760E-07  5700   0.508E-03    0.127E-03
DAV:   3    -0.587780941872E+02   -0.18641E-07   -0.72600E-08  5820   0.198E-03    0.375E-04
DAV:   4    -0.587780941973E+02   -0.10082E-07   -0.11605E-08  2800   0.832E-04    0.173E-04
DAV:   5    -0.587780942050E+02   -0.77339E-08   -0.44451E-09  2504   0.448E-04
  52 F= -.58778094E+02 E0= -.58777655E+02  d E =-.203375E-05
 ZBRENT: can't locate minimum, use default step
 trial-energy change:   -0.000002  1 .order   -0.000002   -0.000002   -0.000002
 step:   0.6043(harm=  0.7549)  dis= 0.00025  next Energy=   -58.778098 (dE=-0.541E-05)
 bond charge predicted
       N       E                     dE             d eps       ncg     rms          rms(c)
DAV:   1    -0.587780980093E+02   -0.38120E-05   -0.31629E-04  4488   0.138E-01    0.659E-03
DAV:   2    -0.587780978699E+02    0.13947E-06   -0.44661E-06  5652   0.152E-02    0.381E-03
DAV:   3    -0.587780977783E+02    0.91581E-07   -0.65729E-07  5836   0.596E-03    0.111E-03
DAV:   4    -0.587780977931E+02   -0.14785E-07   -0.11854E-07  5840   0.249E-03    0.521E-04
DAV:   5    -0.587780978135E+02   -0.20447E-07   -0.16772E-08  3000   0.911E-04    0.186E-04
DAV:   6    -0.587780978187E+02   -0.52207E-08   -0.36952E-09  2688   0.456E-04
  53 F= -.58778098E+02 E0= -.58777657E+02  d E =-.564743E-05
 curvature:  -0.68 expect dE=-0.138E-04 dE for cont linesearch -0.263E-06
 trial: gam= 1.17404 g(F)=  0.179E-04 g(S)=  0.230E-05 ort = 0.327E-05 (trialstep = 0.101E+00)
 search vector abs. value=  0.661E-04
 bond charge predicted
       N       E                     dE             d eps       ncg     rms          rms(c)
DAV:   1    -0.587781000976E+02   -0.22841E-05   -0.49176E-05  4504   0.531E-02    0.170E-03
DAV:   2    -0.587781000972E+02    0.35402E-09   -0.71701E-07  5692   0.577E-03    0.104E-03
DAV:   3    -0.587781000828E+02    0.14400E-07   -0.57057E-08  5292   0.174E-03    0.430E-04
DAV:   4    -0.587781000869E+02   -0.40591E-08   -0.92587E-09  2800   0.705E-04
  54 F= -.58778100E+02 E0= -.58777660E+02  d E =-.226817E-05
 ZBRENT: can't locate minimum, use default step
 trial-energy change:   -0.000002  1 .order   -0.000002   -0.000002   -0.000002
 step:   0.4058(harm=  0.7770)  dis= 0.00029  next Energy=   -58.778107 (dE=-0.933E-05)
 bond charge predicted
       N       E                     dE             d eps       ncg     rms          rms(c)
DAV:   1    -0.587781050117E+02   -0.49288E-05   -0.44298E-04  4488   0.159E-01    0.514E-03
DAV:   2    -0.587781051278E+02   -0.11607E-06   -0.64823E-06  5656   0.173E-02    0.314E-03
DAV:   3    -0.587781049656E+02    0.16218E-06   -0.51588E-07  5428   0.523E-03    0.131E-03
DAV:   4    -0.587781049672E+02   -0.16084E-08   -0.95283E-08  5448   0.212E-03
  55 F= -.58778105E+02 E0= -.58777666E+02  d E =-.714845E-05
 curvature:  -0.75 expect dE=-0.823E-05 dE for cont linesearch -0.147E-05
 ZBRENT: increasing intervall
 opt :   1.0144  next Energy=   -58.778106 (dE=-0.835E-05)
 bond charge predicted
       N       E                     dE             d eps       ncg     rms          rms(c)
DAV:   1    -0.587781062434E+02   -0.12778E-05   -0.17725E-03  4488   0.319E-01    0.103E-02
DAV:   2    -0.587781068186E+02   -0.57527E-06   -0.25975E-05  5656   0.347E-02    0.631E-03
DAV:   3    -0.587781061318E+02    0.68678E-06   -0.20835E-06  5412   0.105E-02    0.262E-03
DAV:   4    -0.587781061035E+02    0.28321E-07   -0.38592E-07  5904   0.426E-03    0.114E-03
DAV:   5    -0.587781061092E+02   -0.56448E-08   -0.54199E-08  5808   0.163E-03
  56 F= -.58778106E+02 E0= -.58777669E+02  d E =-.829044E-05
 curvature:  -0.61 expect dE=-0.491E-04 dE for cont linesearch -0.511E-06
 ZBRENT: bracketing found
 ZBRENT: interpolating
 opt :   0.7741  next Energy=   -58.778107 (dE=-0.919E-05)
 bond charge predicted
       N       E                     dE             d eps       ncg     rms          rms(c)
DAV:   1    -0.587781070353E+02   -0.93180E-06   -0.27641E-04  4488   0.126E-01    0.409E-03
DAV:   2    -0.587781071885E+02   -0.15315E-06   -0.40329E-06  5640   0.137E-02    0.247E-03
DAV:   3    -0.587781070652E+02    0.12324E-06   -0.32525E-07  5396   0.417E-03    0.101E-03
DAV:   4    -0.587781070431E+02    0.22092E-07   -0.58804E-08  5184   0.168E-03    0.446E-04
DAV:   5    -0.587781070382E+02    0.49397E-08   -0.72268E-09  2660   0.639E-04
  57 F= -.58778107E+02 E0= -.58777669E+02  d E =-.921947E-05
 curvature:  -1.06 expect dE=-0.435E-04 dE for cont linesearch -0.136E-11
 trial: gam= 2.50474 g(F)=  0.376E-04 g(S)=  0.327E-05 ort =-0.920E-08 (trialstep = 0.342E-01)
 search vector abs. value=  0.455E-03
 bond charge predicted
       N       E                     dE             d eps       ncg     rms          rms(c)
DAV:   1    -0.587781084022E+02   -0.13590E-05   -0.35958E-05  4488   0.457E-02    0.142E-03
DAV:   2    -0.587781083945E+02    0.76604E-08   -0.41045E-07  5820   0.438E-03    0.841E-04
DAV:   3    -0.587781083839E+02    0.10574E-07   -0.31120E-08  4304   0.127E-03    0.348E-04
DAV:   4    -0.587781083834E+02    0.49749E-09   -0.57858E-09  2540   0.580E-04
  58 F= -.58778108E+02 E0= -.58777670E+02  d E =-.134524E-05
 ZBRENT: can't locate minimum, use default step
 trial-energy change:   -0.000001  1 .order   -0.000001   -0.000001   -0.000001
 step:   0.1370(harm=  0.6528)  dis= 0.00024  next Energy=   -58.778120 (dE=-0.133E-04)
 bond charge predicted
       N       E                     dE             d eps       ncg     rms          rms(c)
DAV:   1    -0.587781120645E+02   -0.36806E-05   -0.32341E-04  4488   0.137E-01    0.425E-03
DAV:   2    -0.587781120776E+02   -0.13145E-07   -0.36936E-06  5868   0.131E-02    0.254E-03
DAV:   3    -0.587781119797E+02    0.97907E-07   -0.31263E-07  5864   0.389E-03    0.107E-03
DAV:   4    -0.587781119690E+02    0.10697E-07   -0.41290E-08  5040   0.146E-03    0.436E-04
DAV:   5    -0.587781119671E+02    0.19609E-08   -0.11174E-08  2812   0.723E-04
  59 F= -.58778112E+02 E0= -.58777673E+02  d E =-.492888E-05
 curvature:  -1.11 expect dE=-0.386E-04 dE for cont linesearch -0.249E-05
 ZBRENT: increasing intervall
 opt :   0.3424  next Energy=   -58.778117 (dE=-0.101E-04)
 bond charge predicted
       N       E                     dE             d eps       ncg     rms          rms(c)
DAV:   1    -0.587781174311E+02   -0.54621E-05   -0.12942E-03  4488   0.274E-01    0.851E-03
DAV:   2    -0.587781175464E+02   -0.11524E-06   -0.14718E-05  5852   0.262E-02    0.507E-03
DAV:   3    -0.587781171503E+02    0.39605E-06   -0.12531E-06  5852   0.776E-03    0.214E-03
DAV:   4    -0.587781171052E+02    0.45133E-07   -0.16669E-07  5756   0.290E-03    0.871E-04
DAV:   5    -0.587781170989E+02    0.62964E-08   -0.49107E-08  5516   0.140E-03
  60 F= -.58778117E+02 E0= -.58777677E+02  d E =-.100607E-04
 curvature:  -2.31 expect dE=-0.847E-04 dE for cont linesearch -0.182E-05
 ZBRENT: increasing intervall
 opt :   0.7533  next Energy=   -58.778120 (dE=-0.125E-04)
 bond charge predicted
       N       E                     dE             d eps       ncg     rms          rms(c)
DAV:   1    -0.587781203832E+02   -0.32780E-05   -0.51763E-03  4488   0.548E-01    0.170E-02
DAV:   2    -0.587781210094E+02   -0.62619E-06   -0.58850E-05  5852   0.524E-02    0.101E-02
DAV:   3    -0.587781194188E+02    0.15906E-05   -0.49825E-06  5852   0.155E-02    0.428E-03
DAV:   4    -0.587781192334E+02    0.18532E-06   -0.66549E-07  5752   0.580E-03    0.174E-03
DAV:   5    -0.587781192098E+02    0.23600E-07   -0.19448E-07  5800   0.279E-03    0.565E-04
DAV:   6    -0.587781192093E+02    0.54661E-09   -0.17375E-08  3128   0.105E-03
  61 F= -.58778119E+02 E0= -.58777676E+02  d E =-.121711E-04
 curvature:  -3.05 expect dE=-0.244E-03 dE for cont linesearch -0.378E-06
 trial: gam= 1.56545 g(F)=  0.562E-04 g(S)=  0.238E-04 ort =-0.750E-05 (trialstep = 0.692E-01)
 search vector abs. value=  0.117E-02
 bond charge predicted
       N       E                     dE             d eps       ncg     rms          rms(c)
DAV:   1    -0.587781238555E+02   -0.46457E-05   -0.34631E-04  4488   0.141E-01    0.537E-03
DAV:   2    -0.587781237378E+02    0.11775E-06   -0.40733E-06  5492   0.138E-02    0.305E-03
DAV:   3    -0.587781236058E+02    0.13199E-06   -0.34765E-07  5508   0.399E-03    0.119E-03
DAV:   4    -0.587781235983E+02    0.75117E-08   -0.49148E-08  5376   0.148E-03
  62 F= -.58778124E+02 E0= -.58777679E+02  d E =-.438897E-05
 ZBRENT: can't locate minimum, use default step
 trial-energy change:   -0.000004  1 .order   -0.000004   -0.000005   -0.000004
 step:   0.2766(harm=  0.5153)  dis= 0.00070  next Energy=   -58.778137 (dE=-0.176E-04)
 bond charge predicted
       N       E                     dE             d eps       ncg     rms          rms(c)
DAV:   1    -0.587781352098E+02   -0.11604E-04   -0.31155E-03  4488   0.424E-01    0.162E-02
DAV:   2    -0.587781343034E+02    0.90641E-06   -0.36678E-05  5440   0.414E-02    0.924E-03
DAV:   3    -0.587781329873E+02    0.13160E-05   -0.31407E-06  5484   0.120E-02    0.359E-03
DAV:   4    -0.587781328496E+02    0.13778E-06   -0.43963E-07  5760   0.444E-03    0.125E-03
DAV:   5    -0.587781328474E+02    0.21296E-08   -0.82390E-08  5416   0.189E-03
  63 F= -.58778133E+02 E0= -.58777683E+02  d E =-.136381E-04
 curvature:  -3.16 expect dE=-0.137E-03 dE for cont linesearch -0.253E-05
 ZBRENT: increasing intervall
 opt :   0.6915  next Energy=   -58.778134 (dE=-0.146E-04)
 bond charge predicted
       N       E                     dE             d eps       ncg     rms          rms(c)
DAV:   1    -0.587781433554E+02   -0.10506E-04   -0.12468E-02  4480   0.848E-01    0.324E-02
DAV:   2    -0.587781397742E+02    0.35812E-05   -0.14675E-04  5440   0.827E-02    0.185E-02
DAV:   3    -0.587781343965E+02    0.53777E-05   -0.12456E-05  5492   0.240E-02    0.719E-03
DAV:   4    -0.587781337738E+02    0.62271E-06   -0.17603E-06  5760   0.886E-03    0.248E-03
DAV:   5    -0.587781337463E+02    0.27447E-07   -0.32369E-07  5788   0.374E-03    0.911E-04
DAV:   6    -0.587781337473E+02   -0.99794E-09   -0.44566E-08  5132   0.147E-03
  64 F= -.58778134E+02 E0= -.58777674E+02  d E =-.145380E-04
 curvature:  -1.15 expect dE=-0.935E-04 dE for cont linesearch -0.653E-06
 ZBRENT: bracketing found
 ZBRENT: interpolating
 opt :   0.5019  next Energy=   -58.778136 (dE=-0.170E-04)
 bond charge predicted
       N       E                     dE             d eps       ncg     rms          rms(c)
DAV:   1    -0.587781380597E+02   -0.43134E-05   -0.26047E-03  4484   0.387E-01    0.149E-02
DAV:   2    -0.587781374269E+02    0.63280E-06   -0.30618E-05  5436   0.378E-02    0.848E-03
DAV:   3    -0.587781362342E+02    0.11928E-05   -0.26039E-06  5436   0.110E-02    0.329E-03
DAV:   4    -0.587781360631E+02    0.17109E-06   -0.36113E-07  5736   0.403E-03    0.113E-03
DAV:   5    -0.587781360453E+02    0.17778E-07   -0.66753E-08  5160   0.170E-03    0.411E-04
DAV:   6    -0.587781360433E+02    0.19643E-08   -0.74420E-09  2720   0.646E-04
  65 F= -.58778136E+02 E0= -.58777681E+02  d E =-.168340E-04
 curvature:  -4.31 expect dE=-0.216E-03 dE for cont linesearch -0.530E-09
 trial: gam= 0.32569 g(F)=  0.394E-04 g(S)=  0.108E-04 ort =-0.380E-06 (trialstep = 0.156E+00)
 search vector abs. value=  0.174E-03
 bond charge predicted
       N       E                     dE             d eps       ncg     rms          rms(c)
DAV:   1    -0.587781428779E+02   -0.68326E-05   -0.26015E-04  4484   0.122E-01    0.635E-03
DAV:   2    -0.587781425108E+02    0.36712E-06   -0.44705E-06  5944   0.151E-02    0.354E-03
DAV:   3    -0.587781423318E+02    0.17898E-06   -0.50801E-07  5188   0.517E-03    0.120E-03
DAV:   4    -0.587781423361E+02   -0.42407E-08   -0.91515E-08  5160   0.214E-03
  66 F= -.58778142E+02 E0= -.58777689E+02  d E =-.629273E-05
 trial-energy change:   -0.000006  1 .order   -0.000006   -0.000008   -0.000005
 step:   0.3379(harm=  0.3871)  dis= 0.00033  next Energy=   -58.778145 (dE=-0.912E-05)
 bond charge predicted
       N       E                     dE             d eps       ncg     rms          rms(c)
DAV:   1    -0.587781466230E+02   -0.42912E-05   -0.35565E-04  4484   0.142E-01    0.740E-03
DAV:   2    -0.587781461195E+02    0.50353E-06   -0.61126E-06  5960   0.176E-02    0.413E-03
DAV:   3    -0.587781458685E+02    0.25097E-06   -0.68684E-07  5216   0.602E-03    0.142E-03
DAV:   4    -0.587781458703E+02   -0.18229E-08   -0.12550E-07  5364   0.251E-03    0.434E-04
DAV:   5    -0.587781458814E+02   -0.11120E-07   -0.14586E-08  3728   0.865E-04    0.205E-04
DAV:   6    -0.587781458878E+02   -0.63058E-08   -0.35669E-09  2620   0.454E-04
  67 F= -.58778146E+02 E0= -.58777694E+02  d E =-.984441E-05
 curvature:  -0.64 expect dE=-0.139E-04 dE for cont linesearch -0.111E-06
 ZBRENT: extrapolating
 opt :   0.3788  next Energy=   -58.778146 (dE=-0.996E-05)
 bond charge predicted
       N       E                     dE             d eps       ncg     rms          rms(c)
DAV:   1    -0.587781460472E+02   -0.16578E-06   -0.17975E-05  4504   0.320E-02    0.166E-03
DAV:   2    -0.587781460290E+02    0.18206E-07   -0.31184E-07  6016   0.398E-03    0.923E-04
DAV:   3    -0.587781460249E+02    0.41043E-08   -0.36427E-08  4972   0.138E-03
  68 F= -.58778146E+02 E0= -.58777694E+02  d E =-.998158E-05
 curvature:  -0.65 expect dE=-0.172E-04 dE for cont linesearch -0.898E-09
 trial: gam= 0.53931 g(F)=  0.231E-04 g(S)=  0.336E-05 ort = 0.491E-06 (trialstep = 0.200E+00)
 search vector abs. value=  0.777E-04
 bond charge predicted
       N       E                     dE             d eps       ncg     rms          rms(c)
DAV:   1    -0.587781506131E+02   -0.45841E-05   -0.20988E-04  4488   0.108E-01    0.432E-03
DAV:   2    -0.587781504645E+02    0.14863E-06   -0.29003E-06  5732   0.125E-02    0.237E-03
DAV:   3    -0.587781503576E+02    0.10683E-06   -0.37249E-07  5396   0.407E-03    0.912E-04
DAV:   4    -0.587781503382E+02    0.19440E-07   -0.49801E-08  5068   0.154E-03    0.410E-04
DAV:   5    -0.587781503333E+02    0.48362E-08   -0.63037E-09  2568   0.593E-04
  69 F= -.58778150E+02 E0= -.58777699E+02  d E =-.430843E-05
 trial-energy change:   -0.000004  1 .order   -0.000004   -0.000005   -0.000003
 step:   0.5441(harm=  0.5441)  dis= 0.00034  next Energy=   -58.778153 (dE=-0.727E-05)
 bond charge predicted
       N       E                     dE             d eps       ncg     rms          rms(c)
DAV:   1    -0.587781539140E+02   -0.35758E-05   -0.61839E-04  4488   0.185E-01    0.731E-03
DAV:   2    -0.587781535083E+02    0.40573E-06   -0.84484E-06  5760   0.214E-02    0.401E-03
DAV:   3    -0.587781532240E+02    0.28428E-06   -0.10669E-06  5372   0.689E-03    0.155E-03
DAV:   4    -0.587781531803E+02    0.43700E-07   -0.14139E-07  5728   0.258E-03    0.694E-04
DAV:   5    -0.587781531699E+02    0.10428E-07   -0.16600E-08  3008   0.965E-04    0.188E-04
DAV:   6    -0.587781531716E+02   -0.17458E-08   -0.41842E-09  2568   0.456E-04
  70 F= -.58778153E+02 E0= -.58777702E+02  d E =-.714668E-05
 curvature:  -0.79 expect dE=-0.206E-04 dE for cont linesearch -0.254E-09
 trial: gam= 0.98933 g(F)=  0.251E-04 g(S)=  0.970E-06 ort = 0.158E-06 (trialstep = 0.204E+00)
 search vector abs. value=  0.102E-03
 bond charge predicted
       N       E                     dE             d eps       ncg     rms          rms(c)
DAV:   1    -0.587781567477E+02   -0.35778E-05   -0.32583E-04  4488   0.134E-01    0.424E-03
DAV:   2    -0.587781566974E+02    0.50310E-07   -0.49287E-06  5840   0.157E-02    0.260E-03
DAV:   3    -0.587781565288E+02    0.16859E-06   -0.47992E-07  5484   0.478E-03    0.113E-03
DAV:   4    -0.587781565099E+02    0.18899E-07   -0.59706E-08  5320   0.174E-03    0.544E-04
DAV:   5    -0.587781564975E+02    0.12383E-07   -0.76251E-09  2648   0.626E-04    0.170E-04
DAV:   6    -0.587781564954E+02    0.21121E-08   -0.16227E-09  2484   0.310E-04
  71 F= -.58778156E+02 E0= -.58777705E+02  d E =-.332379E-05
 trial-energy change:   -0.000003  1 .order   -0.000004   -0.000005   -0.000002
 step:   0.2998(harm=  0.2998)  dis= 0.00019  next Energy=   -58.778157 (dE=-0.393E-05)
 bond charge predicted
       N       E                     dE             d eps       ncg     rms          rms(c)
DAV:   1    -0.587781569055E+02   -0.40797E-06   -0.71681E-05  4488   0.628E-02    0.199E-03
DAV:   2    -0.587781568620E+02    0.43475E-07   -0.10854E-06  5880   0.738E-03    0.122E-03
DAV:   3    -0.587781568106E+02    0.51419E-07   -0.10642E-07  5492   0.225E-03    0.527E-04
DAV:   4    -0.587781568031E+02    0.75049E-08   -0.11619E-08  2624   0.822E-04
  72 F= -.58778157E+02 E0= -.58777705E+02  d E =-.363147E-05
 curvature:  -0.59 expect dE=-0.599E-05 dE for cont linesearch -0.100E-10
 trial: gam= 0.39873 g(F)=  0.774E-05 g(S)=  0.249E-05 ort = 0.419E-07 (trialstep = 0.223E+00)
 search vector abs. value=  0.266E-04
 bond charge predicted
       N       E                     dE             d eps       ncg     rms          rms(c)
DAV:   1    -0.587781588912E+02   -0.20807E-05   -0.84209E-05  4488   0.683E-02    0.219E-03
DAV:   2    -0.587781589392E+02   -0.47943E-07   -0.10170E-06  5244   0.702E-03    0.128E-03
DAV:   3    -0.587781589517E+02   -0.12525E-07   -0.91212E-08  5860   0.211E-03    0.541E-04
DAV:   4    -0.587781589629E+02   -0.11159E-07   -0.99467E-09  2580   0.768E-04    0.242E-04
DAV:   5    -0.587781589729E+02   -0.10041E-07   -0.42015E-09  2396   0.425E-04    0.716E-05
DAV:   6    -0.587781589740E+02   -0.11264E-08   -0.77515E-10  2332   0.216E-04
  73 F= -.58778159E+02 E0= -.58777707E+02  d E =-.217096E-05
 ZBRENT: can't locate minimum, use default step
 trial-energy change:   -0.000002  1 .order   -0.000002   -0.000002   -0.000002
 step:   0.8930(harm=  1.4733)  dis= 0.00037  next Energy=   -58.778164 (dE=-0.755E-05)
 bond charge predicted
       N       E                     dE             d eps       ncg     rms          rms(c)
DAV:   1    -0.587781631945E+02   -0.42216E-05   -0.75953E-04  4480   0.205E-01    0.658E-03
DAV:   2    -0.587781635045E+02   -0.31003E-06   -0.91727E-06  5220   0.211E-02    0.381E-03
DAV:   3    -0.587781634338E+02    0.70756E-07   -0.83698E-07  5868   0.639E-03    0.162E-03
DAV:   4    -0.587781634488E+02   -0.15036E-07   -0.10244E-07  5672   0.231E-03    0.738E-04
DAV:   5    -0.587781634757E+02   -0.26893E-07   -0.21572E-08  3524   0.986E-04    0.208E-04
DAV:   6    -0.587781634802E+02   -0.45584E-08   -0.34679E-09  2640   0.456E-04
  74 F= -.58778163E+02 E0= -.58777711E+02  d E =-.667718E-05
 curvature:  -1.50 expect dE=-0.114E-04 dE for cont linesearch -0.972E-06
 ZBRENT: increasing intervall
 opt :   2.2325  next Energy=   -58.778163 (dE=-0.615E-05)
 bond charge predicted
       N       E                     dE             d eps       ncg     rms          rms(c)
DAV:   1    -0.587781626888E+02    0.78688E-06   -0.30383E-03  4480   0.410E-01    0.132E-02
DAV:   2    -0.587781638156E+02   -0.11268E-05   -0.36695E-05  5212   0.422E-02    0.762E-03
DAV:   3    -0.587781633428E+02    0.47276E-06   -0.33447E-06  5872   0.128E-02    0.323E-03
DAV:   4    -0.587781633135E+02    0.29305E-07   -0.41408E-07  6104   0.462E-03    0.147E-03
DAV:   5    -0.587781633622E+02   -0.48720E-07   -0.87178E-08  5352   0.192E-03    0.439E-04
DAV:   6    -0.587781633715E+02   -0.92057E-08   -0.97433E-09  2940   0.745E-04
  75 F= -.58778163E+02 E0= -.58777711E+02  d E =-.656839E-05
 curvature:   0.81 expect dE= 0.314E-04 dE for cont linesearch  0.746E-06
 ZBRENT: bracketing found
 ZBRENT: interpolating
 opt :   1.5039  next Energy=   -58.778165 (dE=-0.795E-05)
 bond charge predicted
       N       E                     dE             d eps       ncg     rms          rms(c)
DAV:   1    -0.587781651224E+02   -0.17601E-05   -0.89852E-04  4480   0.223E-01    0.718E-03
DAV:   2    -0.587781653653E+02   -0.24293E-06   -0.10831E-05  5188   0.230E-02    0.417E-03
DAV:   3    -0.587781650678E+02    0.29754E-06   -0.99355E-07  5820   0.697E-03    0.176E-03
DAV:   4    -0.587781649838E+02    0.84020E-07   -0.12286E-07  6060   0.252E-03    0.803E-04
DAV:   5    -0.587781649478E+02    0.35918E-07   -0.23353E-08  3556   0.104E-03    0.224E-04
DAV:   6    -0.587781649437E+02    0.41462E-08   -0.38755E-09  2476   0.478E-04
  76 F= -.58778165E+02 E0= -.58777712E+02  d E =-.814064E-05
 curvature:  -1.37 expect dE=-0.227E-04 dE for cont linesearch -0.583E-10
 trial: gam= 1.59973 g(F)=  0.105E-04 g(S)=  0.607E-05 ort = 0.336E-07 (trialstep = 0.150E+00)
 search vector abs. value=  0.846E-04
 bond charge predicted
       N       E                     dE             d eps       ncg     rms          rms(c)
DAV:   1    -0.587781672446E+02   -0.22967E-05   -0.10851E-04  4488   0.800E-02    0.345E-03
DAV:   2    -0.587781671561E+02    0.88449E-07   -0.16181E-06  5500   0.909E-03    0.200E-03
DAV:   3    -0.587781670774E+02    0.78726E-07   -0.25014E-07  5760   0.351E-03    0.735E-04
DAV:   4    -0.587781670659E+02    0.11448E-07   -0.36490E-08  4500   0.142E-03    0.358E-04
DAV:   5    -0.587781670607E+02    0.52271E-08   -0.10132E-08  2432   0.670E-04
  77 F= -.58778167E+02 E0= -.58777713E+02  d E =-.211701E-05
 trial-energy change:   -0.000002  1 .order   -0.000002   -0.000002   -0.000002
 step:   0.5948(harm=  0.5948)  dis= 0.00040  next Energy=   -58.778170 (dE=-0.493E-05)
 bond charge predicted
       N       E                     dE             d eps       ncg     rms          rms(c)
DAV:   1    -0.587781709350E+02   -0.38691E-05   -0.94551E-04  4480   0.236E-01    0.101E-02
DAV:   2    -0.587781703644E+02    0.57064E-06   -0.14091E-05  5544   0.268E-02    0.589E-03
DAV:   3    -0.587781697837E+02    0.58069E-06   -0.21730E-06  5768   0.103E-02    0.217E-03
DAV:   4    -0.587781697079E+02    0.75793E-07   -0.33277E-07  6116   0.419E-03    0.105E-03
DAV:   5    -0.587781696898E+02    0.18116E-07   -0.70437E-08  5532   0.171E-03    0.335E-04
DAV:   6    -0.587781696893E+02    0.45452E-09   -0.55482E-09  2644   0.598E-04
  78 F= -.58778170E+02 E0= -.58777712E+02  d E =-.474564E-05
 curvature:  -1.52 expect dE=-0.232E-04 dE for cont linesearch -0.115E-08
 trial: gam= 0.91864 g(F)=  0.153E-04 g(S)=  0.419E-07 ort = 0.253E-06 (trialstep = 0.232E+00)
 search vector abs. value=  0.872E-04
 bond charge predicted
       N       E                     dE             d eps       ncg     rms          rms(c)
DAV:   1    -0.587781727762E+02   -0.30864E-05   -0.28911E-04  4480   0.131E-01    0.519E-03
DAV:   2    -0.587781726066E+02    0.16963E-06   -0.46129E-06  5972   0.142E-02    0.290E-03
DAV:   3    -0.587781724391E+02    0.16742E-06   -0.37772E-07  5788   0.425E-03    0.128E-03
DAV:   4    -0.587781724084E+02    0.30761E-07   -0.65876E-08  5268   0.180E-03    0.449E-04
DAV:   5    -0.587781724027E+02    0.56793E-08   -0.98505E-09  2800   0.690E-04
  79 F= -.58778172E+02 E0= -.58777714E+02  d E =-.271336E-05
 trial-energy change:   -0.000003  1 .order   -0.000003   -0.000004   -0.000002
 step:   0.5293(harm=  0.5293)  dis= 0.00044  next Energy=   -58.778174 (dE=-0.411E-05)
 bond charge predicted
       N       E                     dE             d eps       ncg     rms          rms(c)
DAV:   1    -0.587781743643E+02   -0.19559E-05   -0.47288E-04  4480   0.168E-01    0.664E-03
DAV:   2    -0.587781741118E+02    0.25241E-06   -0.75439E-06  5972   0.182E-02    0.373E-03
DAV:   3    -0.587781738468E+02    0.26509E-06   -0.62336E-07  5800   0.545E-03    0.164E-03
DAV:   4    -0.587781737999E+02    0.46811E-07   -0.10774E-07  5556   0.230E-03    0.575E-04
DAV:   5    -0.587781737922E+02    0.77230E-08   -0.16365E-08  3368   0.871E-04
  80 F= -.58778174E+02 E0= -.58777715E+02  d E =-.410288E-05
 curvature:  -1.48 expect dE=-0.353E-04 dE for cont linesearch -0.387E-10
 trial: gam= 1.57250 g(F)=  0.212E-04 g(S)=  0.253E-05 ort = 0.477E-07 (trialstep = 0.106E+00)
 search vector abs. value=  0.239E-03
 bond charge predicted
       N       E                     dE             d eps       ncg     rms          rms(c)
DAV:   1    -0.587781760955E+02   -0.22955E-05   -0.17399E-04  4480   0.102E-01    0.334E-03
DAV:   2    -0.587781761311E+02   -0.35577E-07   -0.22582E-06  6008   0.977E-03    0.196E-03
DAV:   3    -0.587781760875E+02    0.43583E-07   -0.13729E-07  6092   0.255E-03    0.950E-04
DAV:   4    -0.587781760796E+02    0.78405E-08   -0.21505E-08  3732   0.106E-03
  81 F= -.58778176E+02 E0= -.58777716E+02  d E =-.228741E-05
 ZBRENT: can't locate minimum, use default step
 trial-energy change:   -0.000002  1 .order   -0.000002   -0.000003   -0.000002
 step:   0.4247(harm=  0.5468)  dis= 0.00054  next Energy=   -58.778180 (dE=-0.652E-05)
 bond charge predicted
       N       E                     dE             d eps       ncg     rms          rms(c)
DAV:   1    -0.587781800265E+02   -0.39390E-05   -0.15660E-03  4480   0.307E-01    0.100E-02
DAV:   2    -0.587781803385E+02   -0.31204E-06   -0.20426E-05  6008   0.294E-02    0.586E-03
DAV:   3    -0.587781799292E+02    0.40931E-06   -0.12275E-06  6096   0.765E-03    0.285E-03
DAV:   4    -0.587781798500E+02    0.79207E-07   -0.20479E-07  5420   0.316E-03    0.102E-03
DAV:   5    -0.587781798509E+02   -0.95201E-09   -0.57560E-08  5580   0.148E-03
  82 F= -.58778180E+02 E0= -.58777718E+02  d E =-.605873E-05
 curvature:  -2.54 expect dE=-0.209E-04 dE for cont linesearch -0.195E-06
 ZBRENT: extrapolating
 opt :   0.5164  next Energy=   -58.778180 (dE=-0.626E-05)
 bond charge predicted
       N       E                     dE             d eps       ncg     rms          rms(c)
DAV:   1    -0.587781800904E+02   -0.24043E-06   -0.12998E-04  4480   0.885E-02    0.288E-03
DAV:   2    -0.587781801179E+02   -0.27490E-07   -0.16792E-06  6012   0.844E-03    0.169E-03
DAV:   3    -0.587781800871E+02    0.30870E-07   -0.10171E-07  5864   0.221E-03    0.817E-04
DAV:   4    -0.587781800826E+02    0.44481E-08   -0.15524E-08  3012   0.919E-04
  83 F= -.58778180E+02 E0= -.58777717E+02  d E =-.629038E-05
 curvature:  -2.56 expect dE=-0.279E-04 dE for cont linesearch -0.151E-08
 trial: gam= 0.44682 g(F)=  0.105E-04 g(S)=  0.427E-06 ort = 0.377E-06 (trialstep = 0.188E+00)
 search vector abs. value=  0.591E-04
 bond charge predicted
       N       E                     dE             d eps       ncg     rms          rms(c)
DAV:   1    -0.587781816745E+02   -0.15875E-05   -0.14808E-04  4480   0.926E-02    0.312E-03
DAV:   2    -0.587781817120E+02   -0.37476E-07   -0.22812E-06  5764   0.105E-02    0.178E-03
DAV:   3    -0.587781816596E+02    0.52398E-07   -0.17055E-07  5744   0.307E-03    0.781E-04
DAV:   4    -0.587781816599E+02   -0.25511E-09   -0.39480E-08  4364   0.134E-03
  84 F= -.58778182E+02 E0= -.58777717E+02  d E =-.157727E-05
 trial-energy change:   -0.000002  1 .order   -0.000002   -0.000002   -0.000001
 step:   0.4040(harm=  0.4040)  dis= 0.00028  next Energy=   -58.778182 (dE=-0.224E-05)
 bond charge predicted
       N       E                     dE             d eps       ncg     rms          rms(c)
DAV:   1    -0.587781823018E+02   -0.64220E-06   -0.19492E-04  4480   0.106E-01    0.362E-03
DAV:   2    -0.587781823582E+02   -0.56367E-07   -0.30093E-06  5792   0.120E-02    0.207E-03
DAV:   3    -0.587781822879E+02    0.70263E-07   -0.22223E-07  5692   0.351E-03    0.916E-04
DAV:   4    -0.587781822869E+02    0.10364E-08   -0.53901E-08  4984   0.155E-03
  85 F= -.58778182E+02 E0= -.58777717E+02  d E =-.220428E-05
 curvature:  -1.08 expect dE=-0.510E-05 dE for cont linesearch -0.838E-10
 trial: gam= 0.44539 g(F)=  0.347E-05 g(S)=  0.127E-05 ort = 0.678E-07 (trialstep = 0.231E+00)
 search vector abs. value=  0.165E-04
 bond charge predicted
[...]
 129 F= -.58778260E+02 E0= -.58777735E+02  d E =0.539293E-06
 trial-energy change:    0.000001  1 .order    0.000001   -0.000009    0.000010
 step:   0.1985(harm=  0.1883)  dis= 0.00012  next Energy=   -58.778263 (dE=-0.213E-05)
 bond charge predicted
       N       E                     dE             d eps       ncg     rms          rms(c)
DAV:   1    -0.587782628976E+02   -0.29424E-05   -0.12058E-04  4488   0.824E-02    0.313E-03
DAV:   2    -0.587782627947E+02    0.10287E-06   -0.27286E-06  5868   0.122E-02    0.206E-03
DAV:   3    -0.587782626512E+02    0.14355E-06   -0.44830E-07  5468   0.456E-03    0.637E-04
DAV:   4    -0.587782626498E+02    0.13356E-08   -0.48381E-08  4284   0.152E-03
 130 F= -.58778263E+02 E0= -.58777737E+02  d E =-.215009E-05
 curvature:  -0.09 expect dE=-0.497E-06 dE for cont linesearch -0.577E-08
 trial: gam= 0.30413 g(F)=  0.508E-05 g(S)=  0.207E-06 ort =-0.114E-05 (trialstep = 0.370E+00)
 search vector abs. value=  0.655E-05
 bond charge predicted
       N       E                     dE             d eps       ncg     rms          rms(c)
DAV:   1    -0.587782638441E+02   -0.11930E-05   -0.81520E-05  4488   0.706E-02    0.220E-03
DAV:   2    -0.587782638521E+02   -0.79747E-08   -0.14153E-06  5836   0.876E-03    0.136E-03
DAV:   3    -0.587782638262E+02    0.25924E-07   -0.17475E-07  5852   0.302E-03    0.613E-04
DAV:   4    -0.587782638261E+02    0.17053E-10   -0.31131E-08  4820   0.128E-03
 131 F= -.58778264E+02 E0= -.58777740E+02  d E =-.117633E-05
 trial-energy change:   -0.000001  1 .order   -0.000001   -0.000002   -0.000001
 step:   0.5267(harm=  0.5267)  dis= 0.00011  next Energy=   -58.778264 (dE=-0.130E-05)
 bond charge predicted
       N       E                     dE             d eps       ncg     rms          rms(c)
DAV:   1    -0.587782639410E+02   -0.11484E-06   -0.14327E-05  4504   0.296E-02    0.953E-04
DAV:   2    -0.587782639424E+02   -0.13695E-08   -0.23794E-07  5844   0.361E-03    0.585E-04
DAV:   3    -0.587782639400E+02    0.23774E-08   -0.29595E-08  4220   0.128E-03
 132 F= -.58778264E+02 E0= -.58777740E+02  d E =-.129017E-05
 curvature:  -0.35 expect dE=-0.900E-06 dE for cont linesearch -0.466E-09
 trial: gam= 0.38834 g(F)=  0.190E-05 g(S)=  0.684E-06 ort =-0.935E-07 (trialstep = 0.402E+00)
 search vector abs. value=  0.349E-05
 bond charge predicted
       N       E                     dE             d eps       ncg     rms          rms(c)
DAV:   1    -0.587782644705E+02   -0.52808E-06   -0.40774E-05  4488   0.487E-02    0.213E-03
DAV:   2    -0.587782644246E+02    0.45806E-07   -0.82298E-07  6032   0.635E-03    0.127E-03
DAV:   3    -0.587782643594E+02    0.65261E-07   -0.11390E-07  6020   0.243E-03    0.396E-04
DAV:   4    -0.587782643496E+02    0.98123E-08   -0.18002E-08  3716   0.929E-04
 133 F= -.58778264E+02 E0= -.58777740E+02  d E =-.409579E-06
 trial-energy change:   -0.000000  1 .order   -0.000000   -0.000001    0.000000
 step:   0.3720(harm=  0.3840)  dis= 0.00006  next Energy=   -58.778264 (dE=-0.411E-06)
 bond charge predicted
       N       E                     dE             d eps       ncg     rms          rms(c)
DAV:   1    -0.587782643446E+02    0.14740E-07   -0.22577E-07  4556   0.360E-03    0.159E-04
DAV:   2    -0.587782643470E+02   -0.23101E-08   -0.39635E-09  2580   0.476E-04
 134 F= -.58778264E+02 E0= -.58777740E+02  d E =-.406961E-06
 curvature:  -0.14 expect dE=-0.184E-06 dE for cont linesearch -0.157E-09
 trial: gam= 0.47549 g(F)=  0.109E-05 g(S)=  0.185E-06 ort = 0.619E-07 (trialstep = 0.396E+00)
 search vector abs. value=  0.213E-05
 bond charge predicted
       N       E                     dE             d eps       ncg     rms          rms(c)
DAV:   1    -0.587782646536E+02   -0.30897E-06   -0.24924E-05  4488   0.380E-02    0.157E-03
DAV:   2    -0.587782646768E+02   -0.23139E-07   -0.48726E-07  6040   0.495E-03    0.101E-03
DAV:   3    -0.587782646631E+02    0.13620E-07   -0.53893E-08  5420   0.174E-03    0.332E-04
DAV:   4    -0.587782646618E+02    0.12908E-08   -0.10706E-08  3560   0.689E-04
 135 F= -.58778265E+02 E0= -.58777740E+02  d E =-.314893E-06
 trial-energy change:   -0.000000  1 .order   -0.000000   -0.000001   -0.000000
 step:   0.4440(harm=  0.4440)  dis= 0.00006  next Energy=   -58.778265 (dE=-0.291E-06)
 bond charge predicted
       N       E                     dE             d eps       ncg     rms          rms(c)
DAV:   1    -0.587782646653E+02   -0.21171E-08   -0.37871E-07  4544   0.469E-03    0.214E-04
DAV:   2    -0.587782646684E+02   -0.31771E-08   -0.70182E-09  2716   0.639E-04
 136 F= -.58778265E+02 E0= -.58777740E+02  d E =-.321478E-06
 curvature:  -0.36 expect dE=-0.434E-06 dE for cont linesearch -0.836E-10
 trial: gam= 0.97134 g(F)=  0.120E-05 g(S)=  0.434E-08 ort = 0.222E-07 (trialstep = 0.265E+00)
 search vector abs. value=  0.325E-05
 bond charge predicted
       N       E                     dE             d eps       ncg     rms          rms(c)
DAV:   1    -0.587782648904E+02   -0.22511E-06   -0.17001E-05  4488   0.310E-02    0.108E-03
DAV:   2    -0.587782648960E+02   -0.56343E-08   -0.29020E-07  6260   0.376E-03    0.677E-04
DAV:   3    -0.587782648870E+02    0.89585E-08   -0.20665E-08  3364   0.113E-03
 137 F= -.58778265E+02 E0= -.58777741E+02  d E =-.218613E-06
 trial-energy change:   -0.000000  1 .order   -0.000000   -0.000000   -0.000000
 step:   0.4262(harm=  0.4262)  dis= 0.00007  next Energy=   -58.778265 (dE=-0.261E-06)
 bond charge predicted
       N       E                     dE             d eps       ncg     rms          rms(c)
DAV:   1    -0.587782649183E+02   -0.22319E-07   -0.61663E-06  4488   0.187E-02    0.658E-04
DAV:   2    -0.587782649214E+02   -0.30584E-08   -0.99256E-08  6228   0.220E-03
 138 F= -.58778265E+02 E0= -.58777741E+02  d E =-.252950E-06
 curvature:  -0.57 expect dE=-0.496E-06 dE for cont linesearch -0.487E-11
 trial: gam= 0.73472 g(F)=  0.865E-06 g(S)=  0.967E-08 ort = 0.529E-08 (trialstep = 0.297E+00)
 search vector abs. value=  0.264E-05
 bond charge predicted
       N       E                     dE             d eps       ncg     rms          rms(c)
DAV:   1    -0.587782651195E+02   -0.20120E-06   -0.15508E-05  4488   0.300E-02    0.875E-04
DAV:   2    -0.587782651244E+02   -0.48806E-08   -0.20447E-07  6184   0.322E-03    0.555E-04
DAV:   3    -0.587782651201E+02    0.42974E-08   -0.10331E-08  3072   0.792E-04
 139 F= -.58778265E+02 E0= -.58777741E+02  d E =-.198728E-06
 trial-energy change:   -0.000000  1 .order   -0.000000   -0.000000   -0.000000
 step:   0.7179(harm=  0.7179)  dis= 0.00009  next Energy=   -58.778265 (dE=-0.315E-06)
 bond charge predicted
       N       E                     dE             d eps       ncg     rms          rms(c)
DAV:   1    -0.587782652112E+02   -0.86776E-07   -0.30927E-05  4488   0.424E-02    0.117E-03
DAV:   2    -0.587782652207E+02   -0.95611E-08   -0.38964E-07  6204   0.446E-03    0.741E-04
DAV:   3    -0.587782652124E+02    0.83244E-08   -0.20358E-08  3784   0.110E-03
 140 F= -.58778265E+02 E0= -.58777740E+02  d E =-.291039E-06
 curvature:  -1.08 expect dE=-0.736E-06 dE for cont linesearch -0.758E-10
 trial: gam= 0.72774 g(F)=  0.439E-06 g(S)=  0.244E-06 ort =-0.136E-07 (trialstep = 0.381E+00)
 search vector abs. value=  0.206E-05
 bond charge predicted
       N       E                     dE             d eps       ncg     rms          rms(c)
DAV:   1    -0.587782653983E+02   -0.17755E-06   -0.16761E-05  4488   0.318E-02    0.131E-03
DAV:   2    -0.587782654160E+02   -0.17745E-07   -0.23465E-07  6236   0.340E-03    0.814E-04
DAV:   3    -0.587782654209E+02   -0.49031E-08   -0.22474E-08  3428   0.115E-03
 141 F= -.58778265E+02 E0= -.58777740E+02  d E =-.208526E-06
 trial-energy change:   -0.000000  1 .order   -0.000000   -0.000000   -0.000000
 step:   0.6434(harm=  0.6434)  dis= 0.00006  next Energy=   -58.778265 (dE=-0.217E-06)
 bond charge predicted
       N       E                     dE             d eps       ncg     rms          rms(c)
DAV:   1    -0.587782654575E+02   -0.41496E-07   -0.78910E-06  4492   0.218E-02    0.891E-04
DAV:   2    -0.587782654723E+02   -0.14786E-07   -0.11009E-07  6336   0.232E-03    0.558E-04
DAV:   3    -0.587782654794E+02   -0.70918E-08   -0.94945E-09  2988   0.750E-04
 142 F= -.58778265E+02 E0= -.58777740E+02  d E =-.266997E-06
 curvature:  -0.98 expect dE=-0.127E-05 dE for cont linesearch -0.226E-10
 trial: gam= 1.88307 g(F)=  0.119E-05 g(S)=  0.101E-06 ort =-0.687E-08 (trialstep = 0.104E+00)
 search vector abs. value=  0.857E-05
 bond charge predicted
       N       E                     dE             d eps       ncg     rms          rms(c)
DAV:   1    -0.587782656013E+02   -0.12894E-06   -0.53927E-06  4488   0.179E-02    0.729E-04
DAV:   2    -0.587782656005E+02    0.73419E-09   -0.71712E-08  5704   0.187E-03
 143 F= -.58778266E+02 E0= -.58777740E+02  d E =-.121112E-06
 ZBRENT: can't locate minimum, use default step
 trial-energy change:   -0.000000  1 .order   -0.000000   -0.000000   -0.000000
 step:   0.4171(harm=  0.5625)  dis= 0.00009  next Energy=   -58.778266 (dE=-0.360E-06)
 bond charge predicted
       N       E                     dE             d eps       ncg     rms          rms(c)
DAV:   1    -0.587782657973E+02   -0.19599E-06   -0.48321E-05  4488   0.536E-02    0.223E-03
DAV:   2    -0.587782657901E+02    0.71632E-08   -0.63676E-07  5752   0.553E-03    0.137E-03
DAV:   3    -0.587782657732E+02    0.16853E-07   -0.71599E-08  5916   0.198E-03    0.327E-04
DAV:   4    -0.587782657761E+02   -0.28854E-08   -0.89026E-09  2820   0.719E-04
 144 F= -.58778266E+02 E0= -.58777740E+02  d E =-.296702E-06
 curvature:  -1.69 expect dE=-0.227E-05 dE for cont linesearch -0.126E-08
 trial: gam= 0.95085 g(F)=  0.126E-05 g(S)=  0.768E-07 ort = 0.799E-07 (trialstep = 0.155E+00)
 search vector abs. value=  0.924E-05
 bond charge predicted
       N       E                     dE             d eps       ncg     rms          rms(c)
DAV:   1    -0.587782659805E+02   -0.20727E-06   -0.14932E-05  4488   0.296E-02    0.879E-04
DAV:   2    -0.587782659831E+02   -0.26193E-08   -0.15852E-07  5300   0.280E-03    0.546E-04
DAV:   3    -0.587782659742E+02    0.89378E-08   -0.79261E-09  2968   0.725E-04
 145 F= -.58778266E+02 E0= -.58777740E+02  d E =-.198070E-06
 ZBRENT: can't locate minimum, use default step
 trial-energy change:   -0.000000  1 .order   -0.000000   -0.000000   -0.000000
 step:   0.6190(harm=  1.3001)  dis= 0.00015  next Energy=   -58.778267 (dE=-0.920E-06)
 bond charge predicted
       N       E                     dE             d eps       ncg     rms          rms(c)
DAV:   1    -0.587782663966E+02   -0.41343E-06   -0.13440E-04  4488   0.887E-02    0.264E-03
DAV:   2    -0.587782664506E+02   -0.54084E-07   -0.14149E-06  5248   0.834E-03    0.163E-03
DAV:   3    -0.587782664107E+02    0.39935E-07   -0.79390E-08  6176   0.208E-03    0.486E-04
DAV:   4    -0.587782664029E+02    0.78205E-08   -0.92056E-09  2836   0.719E-04
 146 F= -.58778266E+02 E0= -.58777740E+02  d E =-.626767E-06
 curvature:  -2.74 expect dE=-0.190E-05 dE for cont linesearch -0.166E-06
 ZBRENT: increasing intervall
 opt :   1.5476  next Energy=   -58.778267 (dE=-0.858E-06)
 bond charge predicted
       N       E                     dE             d eps       ncg     rms          rms(c)
DAV:   1    -0.587782664747E+02   -0.63989E-07   -0.53794E-04  4488   0.177E-01    0.525E-03
DAV:   2    -0.587782667163E+02   -0.24158E-06   -0.56569E-06  5236   0.167E-02    0.323E-03
DAV:   3    -0.587782665952E+02    0.12110E-06   -0.32610E-07  6208   0.421E-03    0.968E-04
DAV:   4    -0.587782665784E+02    0.16763E-07   -0.41566E-08  4776   0.145E-03    0.315E-04
DAV:   5    -0.587782665755E+02    0.28936E-08   -0.62278E-09  2708   0.552E-04
 147 F= -.58778267E+02 E0= -.58777739E+02  d E =-.799404E-06
 curvature:  -3.82 expect dE=-0.125E-04 dE for cont linesearch -0.228E-07
 trial: gam= 0.00000 g(F)=  0.240E-05 g(S)=  0.878E-06 ort =-0.235E-06 (trialstep = 0.433E+00)
 search vector abs. value=  0.328E-05
 bond charge predicted
       N       E                     dE             d eps       ncg     rms          rms(c)
DAV:   1    -0.587782668728E+02   -0.29439E-06   -0.54055E-05  4488   0.578E-02    0.292E-03
DAV:   2    -0.587782669542E+02   -0.81390E-07   -0.14832E-06  6220   0.887E-03    0.169E-03
DAV:   3    -0.587782669552E+02   -0.10177E-08   -0.21999E-07  5784   0.335E-03    0.637E-04
DAV:   4    -0.587782669650E+02   -0.98189E-08   -0.36270E-08  4452   0.128E-03
 148 F= -.58778267E+02 E0= -.58777740E+02  d E =-.389514E-06
 trial-energy change:   -0.000000  1 .order   -0.000000   -0.000001    0.000001
 step:   0.2966(harm=  0.2651)  dis= 0.00004  next Energy=   -58.778267 (dE=-0.528E-06)
 bond charge predicted
       N       E                     dE             d eps       ncg     rms          rms(c)
DAV:   1    -0.587782671615E+02   -0.20633E-06   -0.54475E-06  4520   0.184E-02    0.919E-04
DAV:   2    -0.587782671366E+02    0.24995E-07   -0.15348E-07  6192   0.284E-03    0.532E-04
DAV:   3    -0.587782671180E+02    0.18559E-07   -0.18322E-08  2636   0.104E-03    0.194E-04
DAV:   4    -0.587782671137E+02    0.43353E-08   -0.42756E-09  2372   0.495E-04
 149 F= -.58778267E+02 E0= -.58777740E+02  d E =-.538133E-06
 curvature:  -0.13 expect dE=-0.140E-06 dE for cont linesearch -0.683E-08
 trial: gam= 0.46152 g(F)=  0.991E-06 g(S)=  0.103E-06 ort =-0.418E-06 (trialstep = 0.406E+00)
 search vector abs. value=  0.141E-05
 bond charge predicted
       N       E                     dE             d eps       ncg     rms          rms(c)
DAV:   1    -0.587782673004E+02   -0.18243E-06   -0.17110E-05  4488   0.317E-02    0.118E-03
DAV:   2    -0.587782672938E+02    0.66616E-08   -0.29732E-07  6360   0.400E-03    0.737E-04
DAV:   3    -0.587782672868E+02    0.69135E-08   -0.39090E-08  5024   0.138E-03
 150 F= -.58778267E+02 E0= -.58777740E+02  d E =-.173188E-06
 trial-energy change:   -0.000000  1 .order   -0.000000   -0.000000    0.000000
 step:   0.3973(harm=  0.3973)  dis= 0.00004  next Energy=   -58.778267 (dE=-0.179E-06)
 bond charge predicted
       N       E                     dE             d eps       ncg     rms          rms(c)
DAV:   1    -0.587782672900E+02    0.37310E-08   -0.10722E-08  2568   0.822E-04    0.110E-04
DAV:   2    -0.587782672906E+02   -0.56457E-09   -0.12392E-09  2472   0.269E-04
 151 F= -.58778267E+02 E0= -.58777740E+02  d E =-.176935E-06
 curvature:  -0.31 expect dE=-0.306E-06 dE for cont linesearch -0.119E-09
 trial: gam= 0.60461 g(F)=  0.910E-06 g(S)=  0.769E-07 ort = 0.233E-07 (trialstep = 0.372E+00)
 search vector abs. value=  0.153E-05
 bond charge predicted
       N       E                     dE             d eps       ncg     rms          rms(c)
DAV:   1    -0.587782674976E+02   -0.20761E-06   -0.19223E-05  4488   0.336E-02    0.113E-03
DAV:   2    -0.587782674803E+02    0.17319E-07   -0.34663E-07  6212   0.430E-03    0.662E-04
DAV:   3    -0.587782674630E+02    0.17322E-07   -0.45703E-08  5512   0.149E-03    0.271E-04
DAV:   4    -0.587782674593E+02    0.36644E-08   -0.59415E-09  2572   0.566E-04
 152 F= -.58778267E+02 E0= -.58777739E+02  d E =-.168742E-06
 trial-energy change:   -0.000000  1 .order   -0.000000   -0.000000   -0.000000
 step:   0.3936(harm=  0.3936)  dis= 0.00004  next Energy=   -58.778267 (dE=-0.197E-06)
 bond charge predicted
       N       E                     dE             d eps       ncg     rms          rms(c)
DAV:   1    -0.587782674544E+02    0.86247E-08   -0.63128E-08  4616   0.194E-03    0.755E-05
DAV:   2    -0.587782674529E+02    0.14506E-08   -0.90912E-10  2408   0.242E-04
 153 F= -.58778267E+02 E0= -.58777739E+02  d E =-.162331E-06
 curvature:  -0.30 expect dE=-0.129E-06 dE for cont linesearch -0.181E-11
 trial: gam= 0.51698 g(F)=  0.354E-06 g(S)=  0.736E-07 ort = 0.303E-08 (trialstep = 0.376E+00)
 search vector abs. value=  0.839E-06
 bond charge predicted
       N       E                     dE             d eps       ncg     rms          rms(c)
DAV:   1    -0.587782675718E+02   -0.11745E-06   -0.89466E-06  4488   0.225E-02    0.734E-04
DAV:   2    -0.587782675770E+02   -0.51734E-08   -0.13539E-07  6444   0.253E-03    0.439E-04
DAV:   3    -0.587782675743E+02    0.26823E-08   -0.78351E-09  2784   0.705E-04
 154 F= -.58778268E+02 E0= -.58777740E+02  d E =-.121388E-06
 trial-energy change:   -0.000000  1 .order   -0.000000   -0.000000   -0.000000
 step:   0.7623(harm=  0.7623)  dis= 0.00005  next Energy=   -58.778268 (dE=-0.164E-06)
 bond charge predicted
       N       E                     dE             d eps       ncg     rms          rms(c)
DAV:   1    -0.587782676112E+02   -0.34173E-07   -0.93498E-06  4488   0.230E-02    0.765E-04
DAV:   2    -0.587782676170E+02   -0.58822E-08   -0.13716E-07  6456   0.255E-03    0.456E-04
DAV:   3    -0.587782676152E+02    0.18163E-08   -0.75622E-09  2836   0.695E-04
 155 F= -.58778268E+02 E0= -.58777740E+02  d E =-.162309E-06
 curvature:  -0.75 expect dE=-0.357E-06 dE for cont linesearch -0.428E-10
 trial: gam= 1.11924 g(F)=  0.302E-06 g(S)=  0.177E-06 ort =-0.694E-08 (trialstep = 0.251E+00)
 search vector abs. value=  0.151E-05
 bond charge predicted
       N       E                     dE             d eps       ncg     rms          rms(c)
DAV:   1    -0.587782677191E+02   -0.10201E-06   -0.49973E-06  4488   0.169E-02    0.834E-04
DAV:   2    -0.587782677155E+02    0.35873E-08   -0.71705E-08  6276   0.195E-03
 156 F= -.58778268E+02 E0= -.58777740E+02  d E =-.100244E-06
 ZBRENT: can't locate minimum, use default step
 trial-energy change:   -0.000000  1 .order   -0.000000   -0.000000   -0.000000
 step:   1.0052(harm=  1.0789)  dis= 0.00006  next Energy=   -58.778268 (dE=-0.254E-06)
 bond charge predicted
       N       E                     dE             d eps       ncg     rms          rms(c)
DAV:   1    -0.587782678196E+02   -0.10057E-06   -0.44667E-05  4488   0.506E-02    0.251E-03
DAV:   2    -0.587782677950E+02    0.24583E-07   -0.62623E-07  6340   0.572E-03    0.146E-03
DAV:   3    -0.587782677720E+02    0.23030E-07   -0.98140E-08  5760   0.228E-03    0.295E-04
DAV:   4    -0.587782677746E+02   -0.26066E-08   -0.14252E-08  2836   0.898E-04
 157 F= -.58778268E+02 E0= -.58777739E+02  d E =-.159390E-06
 curvature:  -1.72 expect dE=-0.253E-05 dE for cont linesearch -0.338E-07
 trial: gam= 0.00000 g(F)=  0.145E-05 g(S)=  0.248E-07 ort =-0.173E-06 (trialstep = 0.402E+00)
 search vector abs. value=  0.147E-05
 bond charge predicted
       N       E                     dE             d eps       ncg     rms          rms(c)
DAV:   1    -0.587782678599E+02   -0.87874E-07   -0.28274E-05  4488   0.399E-02    0.171E-03
DAV:   2    -0.587782678560E+02    0.39181E-08   -0.71634E-07  5628   0.629E-03    0.998E-04
DAV:   3    -0.587782678387E+02    0.17303E-07   -0.13749E-07  5724   0.250E-03    0.356E-04
DAV:   4    -0.587782678335E+02    0.51355E-08   -0.17463E-08  3436   0.905E-04
 158 F= -.58778268E+02 E0= -.58777739E+02  d E =-.589107E-07
 trial-energy change:   -0.000000  1 .order   -0.000000   -0.000001    0.000000
 step:   0.2194(harm=  0.2194)  dis= 0.00002  next Energy=   -58.778268 (dE=-0.161E-06)
 bond charge predicted
       N       E                     dE             d eps       ncg     rms          rms(c)
DAV:   1    -0.587782679537E+02   -0.11507E-06   -0.59315E-06  4488   0.183E-02    0.772E-04
DAV:   2    -0.587782679432E+02    0.10508E-07   -0.15582E-07  5628   0.291E-03    0.453E-04
DAV:   3    -0.587782679373E+02    0.59379E-08   -0.25963E-08  2972   0.114E-03
 159 F= -.58778268E+02 E0= -.58777740E+02  d E =-.162672E-06
 curvature:  -0.11 expect dE=-0.471E-07 dE for cont linesearch -0.422E-11
 trial: gam= 0.29727 g(F)=  0.410E-06 g(S)=  0.197E-07 ort =-0.752E-08 (trialstep = 0.366E+00)
 search vector abs. value=  0.555E-06
 reached required accuracy - stopping structural energy minimisation
 writing wavefunctions
Sun Mar  6 01:50:37 CST 2022
