Thu Dec 23 22:10:57 CST 2021
 running on   48 total cores
 distrk:  each k-point on   48 cores,    1 groups
 distr:  one band on   24 cores,    2 groups
 using from now: INCAR     
 vasp.5.3.5 31Mar14 (build Jan 11 2016 19:50:55) complex                        
  
 POSCAR found type information on POSCAR  Ga N  O  Zn
 POSCAR found :  4 types and       8 ions
 scaLAPACK will be used

 ----------------------------------------------------------------------------- 
|                                                                             |
|           W    W    AA    RRRRR   N    N  II  N    N   GGGG   !!!           |
|           W    W   A  A   R    R  NN   N  II  NN   N  G    G  !!!           |
|           W    W  A    A  R    R  N N  N  II  N N  N  G       !!!           |
|           W WW W  AAAAAA  RRRRR   N  N N  II  N  N N  G  GGG   !            |
|           WW  WW  A    A  R   R   N   NN  II  N   NN  G    G                |
|           W    W  A    A  R    R  N    N  II  N    N   GGGG   !!!           |
|                                                                             |
|      For optimal performance we recommend to set                            |
|        NCORE= 4 - approx SQRT( number of cores)                             |
|      NCORE specifies how many cores store one orbital (NPAR=cpu/NCORE).     |
|      This setting can  greatly improve the performance of VASP for DFT.     |
|      The default, NPAR=number of cores might be grossly inefficient         |
|      on modern multi-core architectures or massively parallel machines.     |
|      Do your own testing !!!!                                               |
|      Unfortunately you need to use the default for GW and RPA calculations. |
|      (for HF NCORE is supported but not extensively tested yet)             |
|                                                                             |
 ----------------------------------------------------------------------------- 

 LDA part: xc-table for Pade appr. of Perdew
 POSCAR, INCAR and KPOINTS ok, starting setup
 WARNING: small aliasing (wrap around) errors must be expected
 FFT: planning ...
 WAVECAR not read
 entering main loop
       N       E                     dE             d eps       ncg     rms          rms(c)
DAV:   1     0.912463614293E+03    0.91246E+03   -0.42375E+04 10268   0.344E+03
DAV:   2     0.140960629957E+03   -0.77150E+03   -0.73977E+03  9920   0.797E+02
DAV:   3    -0.334204943595E+02   -0.17438E+03   -0.16975E+03 11044   0.272E+02
DAV:   4    -0.484582975305E+02   -0.15038E+02   -0.14860E+02 12316   0.813E+01
DAV:   5    -0.489296403013E+02   -0.47134E+00   -0.46926E+00 12460   0.144E+01    0.179E+01
DAV:   6    -0.409295764027E+02    0.80001E+01   -0.23976E+01 18616   0.771E+01    0.863E+00
DAV:   7    -0.415576268399E+02   -0.62805E+00   -0.79391E+00 10644   0.204E+01    0.571E+00
DAV:   8    -0.415039590251E+02    0.53668E-01   -0.13455E+00 15752   0.100E+01    0.239E+00
DAV:   9    -0.414463699043E+02    0.57589E-01   -0.22539E-01 14688   0.580E+00    0.950E-01
DAV:  10    -0.414395409251E+02    0.68290E-02   -0.78173E-02 13380   0.186E+00    0.376E-01
DAV:  11    -0.414399663243E+02   -0.42540E-03   -0.11613E-02 13912   0.907E-01    0.131E-01
DAV:  12    -0.414400882093E+02   -0.12189E-03   -0.20449E-03 12172   0.764E-01    0.606E-02
DAV:  13    -0.414401324177E+02   -0.44208E-04   -0.44910E-04 13840   0.229E-01    0.499E-02
DAV:  14    -0.414401240297E+02    0.83880E-05   -0.52880E-05 11616   0.716E-02    0.367E-02
DAV:  15    -0.414401298182E+02   -0.57886E-05   -0.79492E-05 13244   0.825E-02    0.838E-03
DAV:  16    -0.414401311365E+02   -0.13183E-05   -0.91558E-06 12588   0.516E-02    0.740E-03
DAV:  17    -0.414401314439E+02   -0.30739E-06   -0.18081E-06 13284   0.219E-02    0.221E-03
DAV:  18    -0.414401315139E+02   -0.69984E-07   -0.60181E-07 13212   0.106E-02    0.203E-03
DAV:  19    -0.414401313800E+02    0.13384E-06   -0.20029E-07 12660   0.772E-03    0.722E-04
DAV:  20    -0.414401313126E+02    0.67396E-07   -0.54489E-08 11004   0.376E-03    0.398E-04
DAV:  21    -0.414401313080E+02    0.45957E-08   -0.13831E-08  6764   0.200E-03
   1 F= -.41440131E+02 E0= -.41438614E+02  d E =-.414401E+02
 curvature:   0.00 expect dE= 0.000E+00 dE for cont linesearch  0.000E+00
 trial: gam= 0.00000 g(F)=  0.383E-03 g(S)=  0.195E-01 ort = 0.000E+00 (trialstep = 0.100E+01)
 search vector abs. value=  0.199E-01
 bond charge predicted
       N       E                     dE             d eps       ncg     rms          rms(c)
DAV:   1    -0.415574621566E+02   -0.11733E+00   -0.24570E+00 12724   0.201E+01    0.239E+00
DAV:   2    -0.414747447185E+02    0.82717E-01   -0.43993E-01 12316   0.109E+01    0.110E+00
DAV:   3    -0.414544118451E+02    0.20333E-01   -0.35598E-02 15176   0.256E+00    0.493E-01
DAV:   4    -0.414487346184E+02    0.56772E-02   -0.86868E-03 15004   0.113E+00    0.777E-02
DAV:   5    -0.414489493865E+02   -0.21477E-03   -0.39759E-03 10556   0.597E-01    0.606E-02
DAV:   6    -0.414489451376E+02    0.42489E-05   -0.19444E-04 13200   0.186E-01    0.369E-02
DAV:   7    -0.414489455489E+02   -0.41129E-06   -0.49732E-05 12700   0.132E-01    0.180E-02
DAV:   8    -0.414489455273E+02    0.21628E-07   -0.15781E-05 14216   0.644E-02    0.453E-03
DAV:   9    -0.414489455805E+02   -0.53219E-07   -0.53654E-06 13216   0.283E-02    0.283E-03
DAV:  10    -0.414489455750E+02    0.54861E-08   -0.11572E-06 10860   0.982E-03    0.242E-03
DAV:  11    -0.414489457519E+02   -0.17685E-06   -0.35660E-07 14556   0.595E-03    0.465E-04
DAV:  12    -0.414489457601E+02   -0.82150E-08   -0.61669E-08 10728   0.368E-03
   2 F= -.41448946E+02 E0= -.41447284E+02  d E =-.881445E-02
 trial-energy change:   -0.008814  1 .order   -0.008959   -0.019892    0.001975
 step:   0.9063(harm=  0.9097)  dis= 0.00167  next Energy=   -41.449038 (dE=-0.891E-02)
 bond charge predicted
       N       E                     dE             d eps       ncg     rms          rms(c)
DAV:   1    -0.414499774944E+02   -0.10317E-02   -0.21223E-02 12744   0.184E+00    0.223E-01
DAV:   2    -0.414492550600E+02    0.72243E-03   -0.38517E-03 12196   0.104E+00    0.102E-01
DAV:   3    -0.414490813838E+02    0.17368E-03   -0.30515E-04 15444   0.246E-01    0.458E-02
DAV:   4    -0.414490336076E+02    0.47776E-04   -0.75027E-05 14916   0.104E-01    0.710E-03
DAV:   5    -0.414490355753E+02   -0.19677E-05   -0.33854E-05 10552   0.559E-02    0.529E-03
DAV:   6    -0.414490354429E+02    0.13235E-06   -0.16792E-06 13412   0.167E-02    0.335E-03
DAV:   7    -0.414490353267E+02    0.11619E-06   -0.43155E-07 12932   0.136E-02    0.154E-03
DAV:   8    -0.414490352379E+02    0.88893E-07   -0.14051E-07 13468   0.656E-03    0.428E-04
DAV:   9    -0.414490352324E+02    0.54838E-08   -0.45277E-08 10604   0.285E-03
   3 F= -.41449035E+02 E0= -.41447390E+02  d E =-.890392E-02
 curvature:  -0.45 expect dE=-0.341E-02 dE for cont linesearch -0.141E-08
 trial: gam= 0.37750 g(F)=  0.553E-02 g(S)=  0.198E-02 ort = 0.785E-05 (trialstep = 0.981E+00)
 search vector abs. value=  0.104E-01
 bond charge predicted
       N       E                     dE             d eps       ncg     rms          rms(c)
DAV:   1    -0.414601889525E+02   -0.11154E-01   -0.14888E+00 10064   0.703E+00    0.733E-01
DAV:   2    -0.414568775877E+02    0.33114E-02   -0.54695E-02 11616   0.261E+00    0.430E-01
DAV:   3    -0.414535182094E+02    0.33594E-02   -0.76790E-03 12824   0.123E+00    0.145E-01
DAV:   4    -0.414532638980E+02    0.25431E-03   -0.19522E-03 11732   0.646E-01    0.287E-02
DAV:   5    -0.414533056916E+02   -0.41794E-04   -0.53034E-04 11544   0.228E-01    0.225E-02
DAV:   6    -0.414533057539E+02   -0.62299E-07   -0.52345E-05 12552   0.140E-01    0.123E-02
DAV:   7    -0.414533061092E+02   -0.35534E-06   -0.13436E-05 13136   0.639E-02    0.376E-03
DAV:   8    -0.414533062289E+02   -0.11966E-06   -0.33483E-06 11592   0.306E-02    0.219E-03
DAV:   9    -0.414533062254E+02    0.35056E-08   -0.70667E-07 12052   0.117E-02    0.150E-03
DAV:  10    -0.414533061818E+02    0.43538E-07   -0.13731E-07 12024   0.547E-03    0.422E-04
DAV:  11    -0.414533061705E+02    0.11333E-07   -0.40126E-08  9224   0.312E-03    0.195E-04
DAV:  12    -0.414533061688E+02    0.17303E-08   -0.69568E-09  5932   0.132E-03
   4 F= -.41453306E+02 E0= -.41451753E+02  d E =-.427094E-02
 trial-energy change:   -0.004271  1 .order   -0.004234   -0.007379   -0.001089
 step:   1.1444(harm=  1.1511)  dis= 0.01020  next Energy=   -41.453397 (dE=-0.436E-02)
 bond charge predicted
       N       E                     dE             d eps       ncg     rms          rms(c)
DAV:   1    -0.414535860708E+02   -0.27990E-03   -0.41046E-02 10080   0.117E+00    0.122E-01
DAV:   2    -0.414534962547E+02    0.89816E-04   -0.15482E-03 11608   0.446E-01    0.714E-02
DAV:   3    -0.414534056731E+02    0.90582E-04   -0.22134E-04 12304   0.217E-01    0.245E-02
DAV:   4    -0.414533991025E+02    0.65707E-05   -0.64033E-05 12324   0.120E-01    0.476E-03
DAV:   5    -0.414534002077E+02   -0.11052E-05   -0.15089E-05 11536   0.399E-02    0.369E-03
DAV:   6    -0.414534001916E+02    0.16094E-07   -0.14938E-06 12300   0.207E-02    0.201E-03
DAV:   7    -0.414534001678E+02    0.23785E-07   -0.36242E-07 13712   0.119E-02    0.636E-04
DAV:   8    -0.414534001622E+02    0.56302E-08   -0.95286E-08 10984   0.579E-03
   5 F= -.41453400E+02 E0= -.41451859E+02  d E =-.436493E-02
 curvature:  -0.79 expect dE=-0.128E-02 dE for cont linesearch -0.192E-07
 trial: gam= 0.21521 g(F)=  0.130E-02 g(S)=  0.314E-03 ort = 0.158E-04 (trialstep = 0.101E+01)
 search vector abs. value=  0.210E-02
 bond charge predicted
       N       E                     dE             d eps       ncg     rms          rms(c)
DAV:   1    -0.414571486737E+02   -0.37485E-02   -0.35600E-01 10612   0.429E+00    0.458E-01
DAV:   2    -0.414552376710E+02    0.19110E-02   -0.24574E-02 12184   0.220E+00    0.234E-01
DAV:   3    -0.414544924793E+02    0.74519E-03   -0.20563E-03 13648   0.596E-01    0.109E-01
DAV:   4    -0.414542589323E+02    0.23355E-03   -0.54785E-04 13600   0.315E-01    0.205E-02
DAV:   5    -0.414542700083E+02   -0.11076E-04   -0.18143E-04 10652   0.125E-01    0.117E-02
DAV:   6    -0.414542701603E+02   -0.15197E-06   -0.15111E-05 12640   0.579E-02    0.797E-03
DAV:   7    -0.414542698290E+02    0.33135E-06   -0.26981E-06 13084   0.358E-02    0.385E-03
DAV:   8    -0.414542697527E+02    0.76317E-07   -0.10427E-06 15096   0.119E-02    0.104E-03
DAV:   9    -0.414542697551E+02   -0.24861E-08   -0.26074E-07 10764   0.645E-03    0.728E-04
DAV:  10    -0.414542697262E+02    0.28933E-07   -0.41464E-08 10640   0.328E-03    0.267E-04
DAV:  11    -0.414542697209E+02    0.52728E-08   -0.13367E-08  6112   0.162E-03
   6 F= -.41454270E+02 E0= -.41452700E+02  d E =-.869559E-03
 trial-energy change:   -0.000870  1 .order   -0.000866   -0.001641   -0.000091
 step:   1.0727(harm=  1.0735)  dis= 0.00237  next Energy=   -41.454272 (dE=-0.872E-03)
 bond charge predicted
       N       E                     dE             d eps       ncg     rms          rms(c)
DAV:   1    -0.414542817600E+02   -0.12034E-04   -0.11981E-03 10676   0.250E-01    0.266E-02
DAV:   2    -0.414542752618E+02    0.64982E-05   -0.82921E-05 12192   0.128E-01    0.136E-02
DAV:   3    -0.414542729966E+02    0.22653E-05   -0.69451E-06 13688   0.345E-02    0.632E-03
DAV:   4    -0.414542723475E+02    0.64904E-06   -0.18234E-06 13516   0.183E-02    0.121E-03
DAV:   5    -0.414542724060E+02   -0.58515E-07   -0.61547E-07 10652   0.720E-03    0.676E-04
DAV:   6    -0.414542723994E+02    0.65811E-08   -0.50184E-08 10296   0.338E-03
   7 F= -.41454272E+02 E0= -.41452701E+02  d E =-.872237E-03
 curvature:  -0.70 expect dE=-0.260E-03 dE for cont linesearch -0.240E-08
 trial: gam= 0.23745 g(F)=  0.238E-03 g(S)=  0.135E-03 ort =-0.269E-05 (trialstep = 0.103E+01)
 search vector abs. value=  0.490E-03
 bond charge predicted
       N       E                     dE             d eps       ncg     rms          rms(c)
DAV:   1    -0.414545968333E+02   -0.32443E-03   -0.11014E-01  9888   0.202E+00    0.154E-01
DAV:   2    -0.414545522046E+02    0.44629E-04   -0.41769E-03 11684   0.795E-01    0.819E-02
DAV:   3    -0.414545010792E+02    0.51125E-04   -0.31964E-04 12980   0.203E-01    0.410E-02
DAV:   4    -0.414544740449E+02    0.27034E-04   -0.69919E-05 13396   0.117E-01    0.939E-03
DAV:   5    -0.414544745929E+02   -0.54800E-06   -0.23581E-05 10748   0.466E-02    0.485E-03
DAV:   6    -0.414544747145E+02   -0.12163E-06   -0.34867E-06 13904   0.246E-02    0.294E-03
DAV:   7    -0.414544747260E+02   -0.11436E-07   -0.42165E-07 12764   0.166E-02    0.188E-03
DAV:   8    -0.414544748168E+02   -0.90836E-07   -0.21246E-07 14936   0.416E-03    0.685E-04
DAV:   9    -0.414544748191E+02   -0.23415E-08   -0.73133E-08 12232   0.431E-03
   8 F= -.41454475E+02 E0= -.41452895E+02  d E =-.202420E-03
 trial-energy change:   -0.000202  1 .order   -0.000205   -0.000381   -0.000029
 step:   1.1136(harm=  1.1093)  dis= 0.00184  next Energy=   -41.454476 (dE=-0.204E-03)
 bond charge predicted
       N       E                     dE             d eps       ncg     rms          rms(c)
DAV:   1    -0.414544769834E+02   -0.21667E-05   -0.80845E-04  9952   0.172E-01    0.132E-02
DAV:   2    -0.414544766448E+02    0.33860E-06   -0.30396E-05 11700   0.679E-02    0.700E-03
DAV:   3    -0.414544761513E+02    0.49350E-06   -0.23303E-06 12988   0.174E-02    0.351E-03
DAV:   4    -0.414544758749E+02    0.27649E-06   -0.51280E-07 13464   0.101E-02    0.790E-04
DAV:   5    -0.414544758698E+02    0.50436E-08   -0.17336E-07 10760   0.403E-03    0.413E-04
DAV:   6    -0.414544758733E+02   -0.35088E-08   -0.19281E-08  7124   0.211E-03
   9 F= -.41454476E+02 E0= -.41452895E+02  d E =-.203474E-03
 curvature:  -0.73 expect dE=-0.502E-04 dE for cont linesearch -0.114E-07
 trial: gam= 0.19079 g(F)=  0.614E-04 g(S)=  0.754E-05 ort =-0.276E-05 (trialstep = 0.104E+01)
 search vector abs. value=  0.857E-04
 bond charge predicted
       N       E                     dE             d eps       ncg     rms          rms(c)
DAV:   1    -0.414545018595E+02   -0.25990E-04   -0.19434E-02  9912   0.791E-01    0.471E-02
DAV:   2    -0.414545350335E+02   -0.33174E-04   -0.67347E-04 12120   0.233E-01    0.266E-02
DAV:   3    -0.414545282429E+02    0.67906E-05   -0.41795E-05 11664   0.776E-02    0.140E-02
DAV:   4    -0.414545251003E+02    0.31427E-05   -0.10739E-05 14060   0.670E-02    0.291E-03
DAV:   5    -0.414545254761E+02   -0.37587E-06   -0.46537E-06 10740   0.264E-02    0.191E-03
DAV:   6    -0.414545254836E+02   -0.74297E-08   -0.55968E-07 12624   0.106E-02    0.127E-03
DAV:   7    -0.414545254561E+02    0.27438E-07   -0.99421E-08 11824   0.835E-03    0.506E-04
DAV:   8    -0.414545254473E+02    0.88166E-08   -0.48779E-08 10196   0.239E-03
  10 F= -.41454525E+02 E0= -.41452945E+02  d E =-.495740E-04
 trial-energy change:   -0.000050  1 .order   -0.000049   -0.000071   -0.000028
 step:   1.6988(harm=  1.6988)  dis= 0.00168  next Energy=   -41.454534 (dE=-0.581E-04)
 bond charge predicted
       N       E                     dE             d eps       ncg     rms          rms(c)
DAV:   1    -0.414545248726E+02    0.58350E-06   -0.76734E-03  9912   0.497E-01    0.296E-02
DAV:   2    -0.414545378985E+02   -0.13026E-04   -0.26562E-04 12112   0.146E-01    0.167E-02
DAV:   3    -0.414545352932E+02    0.26053E-05   -0.16476E-05 11676   0.483E-02    0.881E-03
DAV:   4    -0.414545340867E+02    0.12065E-05   -0.42454E-06 14084   0.415E-02    0.184E-03
DAV:   5    -0.414545342411E+02   -0.15443E-06   -0.18286E-06 10732   0.163E-02    0.121E-03
DAV:   6    -0.414545342424E+02   -0.13088E-08   -0.21011E-07 12432   0.661E-03    0.793E-04
DAV:   7    -0.414545342281E+02    0.14265E-07   -0.37148E-08  9344   0.520E-03    0.315E-04
DAV:   8    -0.414545342220E+02    0.61668E-08   -0.19943E-08  7716   0.153E-03
  11 F= -.41454534E+02 E0= -.41452953E+02  d E =-.583486E-04
 curvature:  -1.06 expect dE=-0.407E-04 dE for cont linesearch -0.652E-10
 trial: gam= 0.55060 g(F)=  0.347E-04 g(S)=  0.352E-05 ort =-0.725E-07 (trialstep = 0.117E+01)
 search vector abs. value=  0.642E-04
 bond charge predicted
       N       E                     dE             d eps       ncg     rms          rms(c)
DAV:   1    -0.414545349806E+02   -0.75243E-06   -0.18989E-02  9932   0.790E-01    0.353E-02
DAV:   2    -0.414545694729E+02   -0.34492E-04   -0.54451E-04 11800   0.196E-01    0.198E-02
DAV:   3    -0.414545663257E+02    0.31471E-05   -0.28907E-05 12312   0.671E-02    0.108E-02
DAV:   4    -0.414545642961E+02    0.20296E-05   -0.70022E-06 12656   0.412E-02    0.305E-03
DAV:   5    -0.414545644720E+02   -0.17590E-06   -0.25281E-06 11732   0.203E-02    0.145E-03
DAV:   6    -0.414545644797E+02   -0.76429E-08   -0.39123E-07 11672   0.783E-03    0.110E-03
DAV:   7    -0.414545644620E+02    0.17656E-07   -0.36628E-08  9552   0.442E-03    0.589E-04
DAV:   8    -0.414545644431E+02    0.18892E-07   -0.18822E-08  6984   0.155E-03    0.142E-04
DAV:   9    -0.414545644440E+02   -0.87948E-09   -0.94289E-09  5836   0.138E-03
  12 F= -.41454564E+02 E0= -.41452989E+02  d E =-.302220E-04
 trial-energy change:   -0.000030  1 .order   -0.000030   -0.000045   -0.000015
 step:   1.7358(harm=  1.7719)  dis= 0.00140  next Energy=   -41.454568 (dE=-0.339E-04)
 bond charge predicted
       N       E                     dE             d eps       ncg     rms          rms(c)
DAV:   1    -0.414545629449E+02    0.14983E-05   -0.43415E-03  9936   0.378E-01    0.168E-02
DAV:   2    -0.414545708131E+02   -0.78682E-05   -0.12448E-04 11792   0.937E-02    0.947E-03
DAV:   3    -0.414545701525E+02    0.66055E-06   -0.66335E-06 12384   0.321E-02    0.515E-03
DAV:   4    -0.414545697163E+02    0.43629E-06   -0.15991E-06 12664   0.191E-02    0.146E-03
DAV:   5    -0.414545697633E+02   -0.47017E-07   -0.57958E-07 11728   0.960E-03    0.693E-04
DAV:   6    -0.414545697636E+02   -0.37699E-09   -0.87159E-08 11512   0.381E-03
  13 F= -.41454570E+02 E0= -.41452997E+02  d E =-.355417E-04
 curvature:  -1.48 expect dE=-0.395E-04 dE for cont linesearch -0.142E-07
 trial: gam= 0.68624 g(F)=  0.211E-04 g(S)=  0.560E-05 ort = 0.784E-06 (trialstep = 0.129E+01)
 search vector abs. value=  0.580E-04
 bond charge predicted
       N       E                     dE             d eps       ncg     rms          rms(c)
DAV:   1    -0.414545585911E+02    0.11172E-04   -0.20701E-02 10672   0.899E-01    0.517E-02
DAV:   2    -0.414545900216E+02   -0.31431E-04   -0.81082E-04 11592   0.329E-01    0.237E-02
DAV:   3    -0.414545870556E+02    0.29660E-05   -0.63281E-05 12392   0.985E-02    0.129E-02
DAV:   4    -0.414545836917E+02    0.33639E-05   -0.99982E-06 13812   0.585E-02    0.370E-03
DAV:   5    -0.414545837353E+02   -0.43570E-07   -0.37144E-06 11392   0.198E-02    0.143E-03
DAV:   6    -0.414545837723E+02   -0.37004E-07   -0.45959E-07 11112   0.857E-03    0.121E-03
DAV:   7    -0.414545837804E+02   -0.81486E-08   -0.45845E-08 10076   0.592E-03
  14 F= -.41454584E+02 E0= -.41453003E+02  d E =-.140168E-04
 trial-energy change:   -0.000014  1 .order   -0.000014   -0.000035    0.000008
 step:   1.0627(harm=  1.0520)  dis= 0.00069  next Energy=   -41.454584 (dE=-0.147E-04)
 bond charge predicted
       N       E                     dE             d eps       ncg     rms          rms(c)
DAV:   1    -0.414545835294E+02    0.24282E-06   -0.62419E-04 10676   0.156E-01    0.903E-03
DAV:   2    -0.414545843961E+02   -0.86665E-06   -0.24417E-05 11536   0.572E-02    0.408E-03
DAV:   3    -0.414545844065E+02   -0.10363E-07   -0.18991E-06 12440   0.168E-02    0.223E-03
DAV:   4    -0.414545843790E+02    0.27421E-07   -0.29298E-07 13796   0.100E-02    0.637E-04
DAV:   5    -0.414545844000E+02   -0.20918E-07   -0.11020E-07 10792   0.325E-03    0.243E-04
DAV:   6    -0.414545843972E+02    0.27335E-08   -0.10904E-08  6036   0.135E-03
  15 F= -.41454584E+02 E0= -.41453005E+02  d E =-.146336E-04
 curvature:  -1.12 expect dE=-0.137E-04 dE for cont linesearch -0.122E-07
 trial: gam= 0.47056 g(F)=  0.104E-04 g(S)=  0.193E-05 ort = 0.796E-06 (trialstep = 0.124E+01)
 search vector abs. value=  0.259E-04
 bond charge predicted
       N       E                     dE             d eps       ncg     rms          rms(c)
DAV:   1    -0.414545804642E+02    0.39357E-05   -0.83170E-03  9892   0.517E-01    0.222E-02
DAV:   2    -0.414545977252E+02   -0.17261E-04   -0.23587E-04 11848   0.133E-01    0.129E-02
DAV:   3    -0.414545962948E+02    0.14304E-05   -0.14933E-05 11904   0.585E-02    0.708E-03
DAV:   4    -0.414545955375E+02    0.75735E-06   -0.38077E-06 13324   0.545E-02    0.188E-03
DAV:   5    -0.414545956602E+02   -0.12273E-06   -0.16971E-06 13476   0.204E-02    0.966E-04
DAV:   6    -0.414545956697E+02   -0.95147E-08   -0.27169E-07 13820   0.456E-03    0.573E-04
DAV:   7    -0.414545956613E+02    0.84228E-08   -0.34026E-08  9620   0.209E-03
  16 F= -.41454596E+02 E0= -.41453017E+02  d E =-.112641E-04
 trial-energy change:   -0.000011  1 .order   -0.000011   -0.000016   -0.000006
 step:   1.7529(harm=  1.9704)  dis= 0.00072  next Energy=   -41.454597 (dE=-0.125E-04)
 bond charge predicted
       N       E                     dE             d eps       ncg     rms          rms(c)
DAV:   1    -0.414545945830E+02    0.10867E-05   -0.14089E-03  9900   0.213E-01    0.914E-03
DAV:   2    -0.414545975170E+02   -0.29340E-05   -0.40095E-05 11856   0.547E-02    0.532E-03
DAV:   3    -0.414545972908E+02    0.22623E-06   -0.24975E-06 11860   0.243E-02    0.292E-03
DAV:   4    -0.414545971700E+02    0.12078E-06   -0.64761E-07 13360   0.220E-02    0.780E-04
DAV:   5    -0.414545971917E+02   -0.21715E-07   -0.28490E-07 13376   0.834E-03    0.400E-04
DAV:   6    -0.414545971933E+02   -0.15161E-08   -0.46129E-08  9332   0.184E-03
  17 F= -.41454597E+02 E0= -.41453019E+02  d E =-.127960E-04
 curvature:  -1.83 expect dE=-0.887E-05 dE for cont linesearch -0.113E-06
 ZBRENT: extrapolating
 opt :   1.9421  next Energy=   -41.454597 (dE=-0.129E-04)
 bond charge predicted
       N       E                     dE             d eps       ncg     rms          rms(c)
DAV:   1    -0.414545969617E+02    0.23004E-06   -0.19383E-04  9900   0.790E-02    0.341E-03
DAV:   2    -0.414545973701E+02   -0.40843E-06   -0.55911E-06 11832   0.209E-02    0.199E-03
DAV:   3    -0.414545973459E+02    0.24215E-07   -0.36121E-07 11908   0.972E-03    0.110E-03
DAV:   4    -0.414545973326E+02    0.13314E-07   -0.93150E-08 12452   0.837E-03    0.297E-04
DAV:   5    -0.414545973356E+02   -0.30068E-08   -0.38366E-08  8464   0.312E-03
  18 F= -.41454597E+02 E0= -.41453019E+02  d E =-.129384E-04
 curvature:  -1.94 expect dE=-0.108E-04 dE for cont linesearch -0.538E-09
 trial: gam= 0.46009 g(F)=  0.489E-05 g(S)=  0.693E-06 ort = 0.848E-07 (trialstep = 0.138E+01)
 search vector abs. value=  0.111E-04
 bond charge predicted
       N       E                     dE             d eps       ncg     rms          rms(c)
DAV:   1    -0.414545963860E+02    0.94657E-06   -0.42574E-03 10056   0.372E-01    0.161E-02
DAV:   2    -0.414546034186E+02   -0.70326E-05   -0.99967E-05 10888   0.817E-02    0.967E-03
DAV:   3    -0.414546026632E+02    0.75547E-06   -0.59557E-06 12892   0.407E-02    0.481E-03
DAV:   4    -0.414546024356E+02    0.22756E-06   -0.14520E-06 12712   0.294E-02    0.921E-04
DAV:   5    -0.414546024765E+02   -0.40879E-07   -0.49455E-07 11336   0.977E-03    0.551E-04
DAV:   6    -0.414546024806E+02   -0.40732E-08   -0.75995E-08 10256   0.361E-03
  19 F= -.41454602E+02 E0= -.41453023E+02  d E =-.514495E-05
 trial-energy change:   -0.000005  1 .order   -0.000004   -0.000008   -0.000001
 step:   1.4770(harm=  1.5507)  dis= 0.00052  next Energy=   -41.454603 (dE=-0.517E-05)
 bond charge predicted
       N       E                     dE             d eps       ncg     rms          rms(c)
DAV:   1    -0.414546024966E+02   -0.20073E-07   -0.20366E-05 10144   0.260E-02    0.118E-03
DAV:   2    -0.414546025347E+02   -0.38108E-07   -0.52179E-07 10992   0.737E-03    0.716E-04
DAV:   3    -0.414546025341E+02    0.53114E-09   -0.49040E-08 11744   0.482E-03
  20 F= -.41454603E+02 E0= -.41453023E+02  d E =-.519852E-05
 curvature:  -1.24 expect dE=-0.202E-05 dE for cont linesearch -0.193E-07
 trial: gam= 0.22813 g(F)=  0.122E-05 g(S)=  0.401E-06 ort = 0.415E-06 (trialstep = 0.140E+01)
 search vector abs. value=  0.239E-05
 bond charge predicted
       N       E                     dE             d eps       ncg     rms          rms(c)
DAV:   1    -0.414546039680E+02   -0.14333E-05   -0.87327E-04 10236   0.192E-01    0.159E-02
DAV:   2    -0.414546034982E+02    0.46981E-06   -0.43450E-05 11320   0.787E-02    0.832E-03
DAV:   3    -0.414546027019E+02    0.79634E-06   -0.33638E-06 13120   0.233E-02    0.408E-03
DAV:   4    -0.414546023289E+02    0.37295E-06   -0.77648E-07 15128   0.124E-02    0.729E-04
DAV:   5    -0.414546023307E+02   -0.18158E-08   -0.27210E-07 10664   0.471E-03    0.471E-04
DAV:   6    -0.414546023369E+02   -0.62050E-08   -0.12169E-08  6172   0.190E-03
  21 F= -.41454602E+02 E0= -.41453023E+02  d E =0.197215E-06
 trial-energy change:    0.000000  1 .order   -0.000001   -0.000002    0.000000
 step:   1.3219(harm=  1.3219)  dis= 0.00014  next Energy=   -41.454604 (dE=-0.113E-05)
 bond charge predicted
       N       E                     dE             d eps       ncg     rms          rms(c)
DAV:   1    -0.414546023407E+02   -0.10001E-07   -0.27621E-06 10332   0.109E-02    0.877E-04
DAV:   2    -0.414546023402E+02    0.53933E-09   -0.14028E-07 11340   0.462E-03    0.468E-04
DAV:   3    -0.414546023471E+02   -0.69249E-08   -0.84468E-09  5340   0.162E-03
  22 F= -.41454602E+02 E0= -.41453023E+02  d E =0.187033E-06
 curvature:  -0.92 expect dE=-0.131E-05 dE for cont linesearch -0.893E-09
 trial: gam= 0.92711 g(F)=  0.929E-06 g(S)=  0.496E-06 ort = 0.482E-07 (trialstep = 0.928E+00)
 search vector abs. value=  0.357E-05
 bond charge predicted
       N       E                     dE             d eps       ncg     rms          rms(c)
DAV:   1    -0.414546026953E+02   -0.35516E-06   -0.61633E-04  9864   0.139E-01    0.701E-03
DAV:   2    -0.414546035677E+02   -0.87238E-06   -0.15737E-05 12328   0.340E-02    0.401E-03
DAV:   3    -0.414546033392E+02    0.22853E-06   -0.93671E-07 12324   0.114E-02    0.205E-03
DAV:   4    -0.414546032558E+02    0.83365E-07   -0.23364E-07 13428   0.711E-03    0.381E-04
DAV:   5    -0.414546032580E+02   -0.22133E-08   -0.72988E-08 10620   0.265E-03
  23 F= -.41454603E+02 E0= -.41453023E+02  d E =-.910933E-06
 trial-energy change:   -0.000001  1 .order   -0.000001   -0.000001   -0.000001
 step:   1.6206(harm=  1.6206)  dis= 0.00025  next Energy=   -41.454604 (dE=-0.119E-05)
 bond charge predicted
       N       E                     dE             d eps       ncg     rms          rms(c)
DAV:   1    -0.414546031753E+02    0.80487E-07   -0.34446E-04  9864   0.104E-01    0.528E-03
DAV:   2    -0.414546036709E+02   -0.49555E-06   -0.88181E-06 12296   0.253E-02    0.300E-03
DAV:   3    -0.414546035364E+02    0.13445E-06   -0.52415E-07 12344   0.841E-03    0.153E-03
DAV:   4    -0.414546034887E+02    0.47698E-07   -0.12836E-07 12744   0.530E-03    0.285E-04
DAV:   5    -0.414546034895E+02   -0.73805E-09   -0.41130E-08  9932   0.201E-03
  24 F= -.41454603E+02 E0= -.41453022E+02  d E =-.114238E-05
 curvature:  -1.97 expect dE=-0.150E-05 dE for cont linesearch -0.367E-08
 trial: gam= 0.39715 g(F)=  0.435E-06 g(S)=  0.325E-06 ort = 0.816E-07 (trialstep = 0.107E+01)
 search vector abs. value=  0.139E-05
 bond charge predicted
       N       E                     dE             d eps       ncg     rms          rms(c)
DAV:   1    -0.414546052428E+02   -0.17541E-05   -0.31796E-04 10568   0.148E-01    0.132E-02
DAV:   2    -0.414546041392E+02    0.11036E-05   -0.29209E-05 11368   0.730E-02    0.523E-03
DAV:   3    -0.414546040402E+02    0.98993E-07   -0.20048E-06 13772   0.167E-02    0.261E-03
DAV:   4    -0.414546040012E+02    0.38969E-07   -0.31126E-07 14796   0.770E-03    0.692E-04
DAV:   5    -0.414546040261E+02   -0.24874E-07   -0.11435E-07 10712   0.284E-03    0.261E-04
DAV:   6    -0.414546040229E+02    0.32101E-08   -0.69528E-09  5936   0.960E-04
  25 F= -.41454604E+02 E0= -.41453023E+02  d E =-.533376E-06
 trial-energy change:   -0.000001  1 .order   -0.000000   -0.000001   -0.000000
 step:   1.1337(harm=  1.1740)  dis= 0.00013  next Energy=   -41.454604 (dE=-0.536E-06)
 bond charge predicted
       N       E                     dE             d eps       ncg     rms          rms(c)
DAV:   1    -0.414546040214E+02    0.46466E-08   -0.12834E-06 10576   0.943E-03    0.883E-04
DAV:   2    -0.414546040103E+02    0.11156E-07   -0.11713E-07 10932   0.469E-03    0.345E-04
DAV:   3    -0.414546040147E+02   -0.44670E-08   -0.66360E-09  5572   0.117E-03
  26 F= -.41454604E+02 E0= -.41453023E+02  d E =-.525250E-06
 curvature:  -0.88 expect dE=-0.246E-06 dE for cont linesearch -0.169E-10
 trial: gam= 0.42575 g(F)=  0.119E-06 g(S)=  0.159E-06 ort =-0.515E-08 (trialstep = 0.108E+01)
 search vector abs. value=  0.526E-06
 bond charge predicted
       N       E                     dE             d eps       ncg     rms          rms(c)
DAV:   1    -0.414546041991E+02   -0.18882E-06   -0.12453E-04  9940   0.775E-02    0.564E-03
DAV:   2    -0.414546043131E+02   -0.11403E-06   -0.79646E-06 11592   0.349E-02    0.242E-03
DAV:   3    -0.414546042204E+02    0.92761E-07   -0.52185E-07 12148   0.850E-03    0.122E-03
DAV:   4    -0.414546041424E+02    0.77977E-07   -0.94497E-08 13644   0.461E-03    0.350E-04
DAV:   5    -0.414546041296E+02    0.12788E-07   -0.31068E-08  8948   0.217E-03    0.146E-04
DAV:   6    -0.414546041315E+02   -0.19386E-08   -0.50570E-09  5576   0.953E-04
  27 F= -.41454604E+02 E0= -.41453023E+02  d E =-.116795E-06
 trial-energy change:   -0.000000  1 .order   -0.000000   -0.000000   -0.000000
 step:   1.1934(harm=  1.1934)  dis= 0.00009  next Energy=   -41.454604 (dE=-0.165E-06)
 bond charge predicted
       N       E                     dE             d eps       ncg     rms          rms(c)
DAV:   1    -0.414546041398E+02   -0.10208E-07   -0.13864E-06 10024   0.817E-03    0.624E-04
DAV:   2    -0.414546041446E+02   -0.47712E-08   -0.87020E-08 11192   0.365E-03
  28 F= -.41454604E+02 E0= -.41453023E+02  d E =-.129835E-06
 curvature:  -1.14 expect dE=-0.155E-06 dE for cont linesearch -0.665E-08
 trial: gam= 0.00000 g(F)=  0.519E-07 g(S)=  0.843E-07 ort =-0.555E-07 (trialstep = 0.110E+01)
 search vector abs. value=  0.136E-06
 bond charge predicted
       N       E                     dE             d eps       ncg     rms          rms(c)
DAV:   1    -0.414546048376E+02   -0.69779E-06   -0.28709E-05 12648   0.674E-02    0.705E-03
DAV:   2    -0.414546041833E+02    0.65427E-06   -0.52283E-06 12556   0.370E-02    0.287E-03
DAV:   3    -0.414546041465E+02    0.36864E-07   -0.41100E-07 14864   0.804E-03    0.134E-03
DAV:   4    -0.414546041555E+02   -0.90149E-08   -0.65603E-08 13384   0.303E-03
  29 F= -.41454604E+02 E0= -.41453023E+02  d E =-.109067E-07
 trial-energy change:   -0.000000  1 .order    0.000000   -0.000000    0.000000
 step:   0.6711(harm=  0.3588)  dis= 0.00002  next Energy=   -41.454604 (dE=-0.663E-07)
 bond charge predicted
       N       E                     dE             d eps       ncg     rms          rms(c)
DAV:   1    -0.414546043428E+02   -0.19635E-06   -0.42771E-06 12660   0.259E-02    0.269E-03
DAV:   2    -0.414546042463E+02    0.96520E-07   -0.82671E-07 12384   0.145E-02    0.113E-03
DAV:   3    -0.414546042012E+02    0.45124E-07   -0.58049E-08 10528   0.313E-03    0.528E-04
DAV:   4    -0.414546041716E+02    0.29551E-07   -0.93862E-09  5708   0.122E-03    0.118E-04
DAV:   5    -0.414546041673E+02    0.42860E-08   -0.69988E-09  4976   0.779E-04
  30 F= -.41454604E+02 E0= -.41453023E+02  d E =-.227610E-07
 curvature:  -0.15 expect dE=-0.197E-07 dE for cont linesearch -0.484E-08
 trial: gam= 0.00000 g(F)=  0.312E-07 g(S)=  0.102E-06 ort =-0.668E-07 (trialstep = 0.102E+01)
 search vector abs. value=  0.133E-06
 reached required accuracy - stopping structural energy minimisation
 writing wavefunctions
Thu Dec 23 22:24:47 CST 2021
