Sun Mar  6 00:50:49 CST 2022
 running on   48 total cores
 distrk:  each k-point on   48 cores,    1 groups
 distr:  one band on   24 cores,    2 groups
 using from now: INCAR     
 vasp.5.3.5 31Mar14 (build Jan 11 2016 19:50:55) complex                        
  
 POSCAR found type information on POSCAR  B  C 
 POSCAR found :  2 types and       8 ions
 scaLAPACK will be used

 ----------------------------------------------------------------------------- 
|                                                                             |
|           W    W    AA    RRRRR   N    N  II  N    N   GGGG   !!!           |
|           W    W   A  A   R    R  NN   N  II  NN   N  G    G  !!!           |
|           W    W  A    A  R    R  N N  N  II  N N  N  G       !!!           |
|           W WW W  AAAAAA  RRRRR   N  N N  II  N  N N  G  GGG   !            |
|           WW  WW  A    A  R   R   N   NN  II  N   NN  G    G                |
|           W    W  A    A  R    R  N    N  II  N    N   GGGG   !!!           |
|                                                                             |
|      For optimal performance we recommend to set                            |
|        NCORE= 4 - approx SQRT( number of cores)                             |
|      NCORE specifies how many cores store one orbital (NPAR=cpu/NCORE).     |
|      This setting can  greatly improve the performance of VASP for DFT.     |
|      The default, NPAR=number of cores might be grossly inefficient         |
|      on modern multi-core architectures or massively parallel machines.     |
|      Do your own testing !!!!                                               |
|      Unfortunately you need to use the default for GW and RPA calculations. |
|      (for HF NCORE is supported but not extensively tested yet)             |
|                                                                             |
 ----------------------------------------------------------------------------- 

 LDA part: xc-table for Pade appr. of Perdew
 POSCAR, INCAR and KPOINTS ok, starting setup
 WARNING: small aliasing (wrap around) errors must be expected
 FFT: planning ...
 WAVECAR not read
 entering main loop
       N       E                     dE             d eps       ncg     rms          rms(c)
DAV:   1     0.152835265112E+03    0.15284E+03   -0.17111E+04  4480   0.175E+03
DAV:   2    -0.579780263428E+02   -0.21081E+03   -0.20355E+03  6312   0.290E+02
DAV:   3    -0.708960458925E+02   -0.12918E+02   -0.12781E+02  5360   0.746E+01
DAV:   4    -0.711986516069E+02   -0.30261E+00   -0.30219E+00  5852   0.126E+01
DAV:   5    -0.712062087805E+02   -0.75572E-02   -0.75557E-02  5664   0.189E+00    0.130E+01
DAV:   6    -0.666439473010E+02    0.45623E+01   -0.63362E+00  5240   0.135E+01    0.721E+00
DAV:   7    -0.652379760229E+02    0.14060E+01   -0.33529E+00  5312   0.997E+00    0.249E+00
DAV:   8    -0.651932642870E+02    0.44712E-01   -0.26650E-01  5524   0.305E+00    0.967E-01
DAV:   9    -0.651996097550E+02   -0.63455E-02   -0.21937E-02  5380   0.102E+00    0.279E-01
DAV:  10    -0.652023557739E+02   -0.27460E-02   -0.31553E-03  5196   0.416E-01    0.727E-02
DAV:  11    -0.652030060357E+02   -0.65026E-03   -0.57999E-04  5276   0.175E-01    0.409E-02
DAV:  12    -0.652031838556E+02   -0.17782E-03   -0.16513E-04  5024   0.942E-02    0.114E-02
DAV:  13    -0.652031970799E+02   -0.13224E-04   -0.18707E-05  5500   0.330E-02    0.381E-03
DAV:  14    -0.652031983906E+02   -0.13107E-05   -0.24562E-06  5196   0.126E-02    0.137E-03
DAV:  15    -0.652031986130E+02   -0.22241E-06   -0.35084E-07  5468   0.482E-03    0.433E-04
DAV:  16    -0.652031986486E+02   -0.35516E-07   -0.43604E-08  5124   0.162E-03    0.228E-04
DAV:  17    -0.652031986590E+02   -0.10489E-07   -0.75881E-09  3776   0.766E-04    0.740E-05
DAV:  18    -0.652031986611E+02   -0.20179E-08   -0.17981E-09  3400   0.403E-04
   1 F= -.65203199E+02 E0= -.65194161E+02  d E =-.652032E+02
 curvature:   0.00 expect dE= 0.000E+00 dE for cont linesearch  0.000E+00
 trial: gam= 0.00000 g(F)=  0.222E-02 g(S)=  0.466E-03 ort = 0.000E+00 (trialstep = 0.100E+01)
 search vector abs. value=  0.268E-02
 bond charge predicted
       N       E                     dE             d eps       ncg     rms          rms(c)
DAV:   1    -0.652018894931E+02    0.13092E-02   -0.33192E-01  4788   0.433E+00    0.178E-01
DAV:   2    -0.652017863541E+02    0.10314E-03   -0.77204E-03  5356   0.641E-01    0.998E-02
DAV:   3    -0.652015685150E+02    0.21784E-03   -0.79879E-04  5352   0.205E-01    0.385E-02
DAV:   4    -0.652015560141E+02    0.12501E-04   -0.13006E-04  5304   0.735E-02    0.158E-02
DAV:   5    -0.652015544254E+02    0.15887E-05   -0.14235E-05  5316   0.279E-02    0.420E-03
DAV:   6    -0.652015544502E+02   -0.24812E-07   -0.23694E-06  5240   0.113E-02    0.223E-03
DAV:   7    -0.652015545505E+02   -0.10025E-06   -0.24435E-07  5436   0.343E-03    0.790E-04
DAV:   8    -0.652015545674E+02   -0.16926E-07   -0.26999E-08  4724   0.120E-03    0.312E-04
DAV:   9    -0.652015545744E+02   -0.70024E-08   -0.54021E-09  3376   0.598E-04
   2 F= -.65201555E+02 E0= -.65193126E+02  d E =0.164409E-02
 trial-energy change:    0.001644  1 .order    0.001675   -0.002681    0.006031
 step:   0.3123(harm=  0.3077)  dis= 0.00189  next Energy=   -65.203618 (dE=-0.420E-03)
 bond charge predicted
       N       E                     dE             d eps       ncg     rms          rms(c)
DAV:   1    -0.652037843622E+02   -0.22298E-02   -0.15707E-01  4756   0.298E+00    0.122E-01
DAV:   2    -0.652037323854E+02    0.51977E-04   -0.36509E-03  5364   0.441E-01    0.688E-02
DAV:   3    -0.652036272585E+02    0.10513E-03   -0.37530E-04  5344   0.141E-01    0.267E-02
DAV:   4    -0.652036203130E+02    0.69455E-05   -0.61981E-05  5308   0.506E-02    0.110E-02
DAV:   5    -0.652036187222E+02    0.15908E-05   -0.68900E-06  5304   0.194E-02    0.288E-03
DAV:   6    -0.652036186278E+02    0.94317E-07   -0.11307E-06  5224   0.783E-03    0.157E-03
DAV:   7    -0.652036185924E+02    0.35433E-07   -0.12006E-07  5456   0.241E-03    0.550E-04
DAV:   8    -0.652036185977E+02   -0.53212E-08   -0.12676E-08  3512   0.854E-04
   3 F= -.65203619E+02 E0= -.65194777E+02  d E =-.419937E-03
 curvature:  -0.15 expect dE=-0.376E-04 dE for cont linesearch -0.184E-08
 trial: gam= 0.09317 g(F)=  0.165E-03 g(S)=  0.794E-04 ort =-0.566E-05 (trialstep = 0.862E+00)
 search vector abs. value=  0.266E-03
 bond charge predicted
       N       E                     dE             d eps       ncg     rms          rms(c)
DAV:   1    -0.652036256720E+02   -0.70796E-05   -0.18427E-02  4836   0.101E+00    0.473E-02
DAV:   2    -0.652036051336E+02    0.20538E-04   -0.43945E-04  5364   0.149E-01    0.294E-02
DAV:   3    -0.652035786447E+02    0.26489E-04   -0.54043E-05  5288   0.535E-02    0.841E-03
DAV:   4    -0.652035776145E+02    0.10302E-05   -0.97921E-06  5364   0.201E-02    0.290E-03
DAV:   5    -0.652035775902E+02    0.24363E-07   -0.51553E-07  5608   0.539E-03    0.131E-03
DAV:   6    -0.652035775971E+02   -0.69463E-08   -0.70927E-08  5132   0.205E-03
   4 F= -.65203578E+02 E0= -.65194769E+02  d E =0.410006E-04
 trial-energy change:    0.000041  1 .order    0.000042   -0.000210    0.000294
 step:   0.3621(harm=  0.3592)  dis= 0.00036  next Energy=   -65.203663 (dE=-0.442E-04)
 bond charge predicted
       N       E                     dE             d eps       ncg     rms          rms(c)
DAV:   1    -0.652036800263E+02   -0.10244E-03   -0.62034E-03  4824   0.588E-01    0.275E-02
DAV:   2    -0.652036728739E+02    0.71524E-05   -0.14786E-04  5360   0.865E-02    0.171E-02
DAV:   3    -0.652036636567E+02    0.92172E-05   -0.18227E-05  5288   0.311E-02    0.487E-03
DAV:   4    -0.652036632488E+02    0.40790E-06   -0.32842E-06  5360   0.117E-02    0.168E-03
DAV:   5    -0.652036632455E+02    0.33235E-08   -0.17208E-07  5612   0.311E-03    0.754E-04
DAV:   6    -0.652036632511E+02   -0.56605E-08   -0.22432E-08  4264   0.117E-03
   5 F= -.65203663E+02 E0= -.65194835E+02  d E =-.446534E-04
 curvature:  -0.20 expect dE=-0.118E-04 dE for cont linesearch -0.360E-08
 trial: gam= 0.25390 g(F)=  0.282E-04 g(S)=  0.321E-04 ort =-0.221E-05 (trialstep = 0.762E+00)
 search vector abs. value=  0.764E-04
 bond charge predicted
       N       E                     dE             d eps       ncg     rms          rms(c)
DAV:   1    -0.652037347304E+02   -0.71485E-04   -0.31119E-03  4488   0.399E-01    0.277E-02
DAV:   2    -0.652037049853E+02    0.29745E-04   -0.68533E-05  5168   0.554E-02    0.149E-02
DAV:   3    -0.652036914176E+02    0.13568E-04   -0.40597E-05  5224   0.342E-02    0.322E-03
DAV:   4    -0.652036911969E+02    0.22074E-06   -0.12570E-06  5216   0.775E-03    0.160E-03
DAV:   5    -0.652036911258E+02    0.71111E-07   -0.25566E-07  5304   0.318E-03    0.578E-04
DAV:   6    -0.652036911218E+02    0.39172E-08   -0.22548E-08  3612   0.117E-03
   6 F= -.65203691E+02 E0= -.65194870E+02  d E =-.278707E-04
 trial-energy change:   -0.000028  1 .order   -0.000028   -0.000046   -0.000010
 step:   0.9535(harm=  0.9655)  dis= 0.00032  next Energy=   -65.203692 (dE=-0.291E-04)
 bond charge predicted
       N       E                     dE             d eps       ncg     rms          rms(c)
DAV:   1    -0.652036951238E+02   -0.39981E-05   -0.19536E-04  4488   0.100E-01    0.693E-03
DAV:   2    -0.652036933043E+02    0.18195E-05   -0.43247E-06  5176   0.139E-02    0.371E-03
DAV:   3    -0.652036924586E+02    0.84568E-06   -0.25622E-06  5232   0.859E-03    0.802E-04
DAV:   4    -0.652036924295E+02    0.29082E-07   -0.79822E-08  5208   0.196E-03    0.400E-04
DAV:   5    -0.652036924181E+02    0.11462E-07   -0.14405E-08  3460   0.818E-04    0.141E-04
DAV:   6    -0.652036924142E+02    0.39220E-08   -0.25305E-09  2940   0.416E-04
   7 F= -.65203692E+02 E0= -.65194872E+02  d E =-.291630E-04
 curvature:  -0.61 expect dE=-0.877E-04 dE for cont linesearch -0.223E-08
 trial: gam= 2.34317 g(F)=  0.108E-03 g(S)=  0.349E-04 ort = 0.526E-06 (trialstep = 0.108E+00)
 search vector abs. value=  0.564E-03
 bond charge predicted
       N       E                     dE             d eps       ncg     rms          rms(c)
DAV:   1    -0.652037162797E+02   -0.23862E-04   -0.40070E-04  4488   0.135E-01    0.122E-02
DAV:   2    -0.652037099332E+02    0.63465E-05   -0.10317E-05  4804   0.205E-02    0.633E-03
DAV:   3    -0.652037074512E+02    0.24820E-05   -0.86232E-06  5168   0.156E-02    0.185E-03
DAV:   4    -0.652037073439E+02    0.10727E-06   -0.51590E-07  5172   0.450E-03    0.665E-04
DAV:   5    -0.652037073134E+02    0.30536E-07   -0.79351E-08  5336   0.173E-03    0.349E-04
DAV:   6    -0.652037073041E+02    0.92200E-08   -0.69590E-09  3124   0.645E-04
   8 F= -.65203707E+02 E0= -.65194886E+02  d E =-.148900E-04
 ZBRENT: can't locate minimum, use default step
 trial-energy change:   -0.000015  1 .order   -0.000015   -0.000016   -0.000014
 step:   0.4333(harm=  1.1701)  dis= 0.00027  next Energy=   -65.203777 (dE=-0.842E-04)
 bond charge predicted
       N       E                     dE             d eps       ncg     rms          rms(c)
DAV:   1    -0.652038244153E+02   -0.11710E-03   -0.36079E-03  4488   0.406E-01    0.366E-02
DAV:   2    -0.652037665574E+02    0.57858E-04   -0.92978E-05  4796   0.617E-02    0.190E-02
DAV:   3    -0.652037443874E+02    0.22170E-04   -0.77755E-05  5172   0.469E-02    0.557E-03
DAV:   4    -0.652037437119E+02    0.67558E-06   -0.46592E-06  5136   0.135E-02    0.200E-03
DAV:   5    -0.652037435125E+02    0.19931E-06   -0.71728E-07  5320   0.519E-03    0.105E-03
DAV:   6    -0.652037435050E+02    0.75524E-08   -0.71805E-08  4996   0.194E-03
   9 F= -.65203744E+02 E0= -.65194917E+02  d E =-.510908E-04
 curvature:  -1.19 expect dE=-0.109E-03 dE for cont linesearch -0.179E-04
 ZBRENT: increasing intervall
 opt :   1.0833  next Energy=   -65.203778 (dE=-0.860E-04)
 bond charge predicted
       N       E                     dE             d eps       ncg     rms          rms(c)
DAV:   1    -0.652041012772E+02   -0.35776E-03   -0.14409E-02  4488   0.811E-01    0.730E-02
DAV:   2    -0.652038694966E+02    0.23178E-03   -0.37141E-04  4796   0.123E-01    0.379E-02
DAV:   3    -0.652037810471E+02    0.88450E-04   -0.31106E-04  5176   0.937E-02    0.111E-02
DAV:   4    -0.652037786422E+02    0.24048E-05   -0.18659E-05  5144   0.270E-02    0.400E-03
DAV:   5    -0.652037779208E+02    0.72144E-06   -0.28813E-06  5316   0.104E-02    0.210E-03
DAV:   6    -0.652037779665E+02   -0.45758E-07   -0.28864E-07  5012   0.389E-03    0.575E-04
DAV:   7    -0.652037779856E+02   -0.19047E-07   -0.30408E-08  4056   0.142E-03    0.289E-04
DAV:   8    -0.652037779937E+02   -0.81054E-08   -0.11050E-08  3436   0.863E-04
  10 F= -.65203778E+02 E0= -.65194942E+02  d E =-.855795E-04
 curvature:  -2.32 expect dE=-0.524E-03 dE for cont linesearch -0.818E-06
 trial: gam= 1.52622 g(F)=  0.160E-03 g(S)=  0.655E-04 ort = 0.141E-04 (trialstep = 0.108E+00)
 search vector abs. value=  0.158E-02
 bond charge predicted
       N       E                     dE             d eps       ncg     rms          rms(c)
DAV:   1    -0.652038303049E+02   -0.52319E-04   -0.99139E-04  4488   0.205E-01    0.208E-02
DAV:   2    -0.652038114407E+02    0.18864E-04   -0.25637E-05  4572   0.313E-02    0.108E-02
DAV:   3    -0.652038040913E+02    0.73494E-05   -0.25259E-05  5136   0.267E-02    0.306E-03
DAV:   4    -0.652038038614E+02    0.22994E-06   -0.10908E-06  5120   0.686E-03    0.119E-03
DAV:   5    -0.652038037853E+02    0.76016E-07   -0.19020E-07  5340   0.267E-03    0.527E-04
DAV:   6    -0.652038037744E+02    0.10954E-07   -0.13287E-08  3380   0.955E-04    0.138E-04
DAV:   7    -0.652038037690E+02    0.54047E-08   -0.36639E-09  3136   0.530E-04
  11 F= -.65203804E+02 E0= -.65194967E+02  d E =-.257753E-04
 ZBRENT: can't locate minimum, use default step
 trial-energy change:   -0.000026  1 .order   -0.000026   -0.000027   -0.000025
 step:   0.4324(harm=  1.7289)  dis= 0.00022  next Energy=   -65.203992 (dE=-0.214E-03)
 bond charge predicted
       N       E                     dE             d eps       ncg     rms          rms(c)
DAV:   1    -0.652041063602E+02   -0.30259E-03   -0.89132E-03  4496   0.614E-01    0.623E-02
DAV:   2    -0.652039363226E+02    0.17004E-03   -0.22997E-04  4576   0.938E-02    0.324E-02
DAV:   3    -0.652038709947E+02    0.65328E-04   -0.22723E-04  5140   0.799E-02    0.921E-03
DAV:   4    -0.652038694031E+02    0.15916E-05   -0.98517E-06  5104   0.206E-02    0.359E-03
DAV:   5    -0.652038689424E+02    0.46068E-06   -0.17130E-06  5336   0.799E-03    0.159E-03
DAV:   6    -0.652038689608E+02   -0.18421E-07   -0.13042E-07  4980   0.286E-03    0.404E-04
DAV:   7    -0.652038689610E+02   -0.18986E-09   -0.26365E-08  4004   0.128E-03
  12 F= -.65203869E+02 E0= -.65195028E+02  d E =-.909674E-04
 curvature:  -1.99 expect dE=-0.278E-03 dE for cont linesearch -0.445E-04
 ZBRENT: increasing intervall
 opt :   1.0811  next Energy=   -65.203963 (dE=-0.185E-03)
 bond charge predicted
       N       E                     dE             d eps       ncg     rms          rms(c)
DAV:   1    -0.652049071088E+02   -0.10381E-02   -0.35548E-02  4500   0.122E+00    0.124E-01
DAV:   2    -0.652042282944E+02    0.67881E-03   -0.91629E-04  4592   0.187E-01    0.647E-02
DAV:   3    -0.652039677764E+02    0.26052E-03   -0.90949E-04  5132   0.160E-01    0.184E-02
DAV:   4    -0.652039618991E+02    0.58773E-05   -0.39579E-05  5092   0.412E-02    0.716E-03
DAV:   5    -0.652039602748E+02    0.16243E-05   -0.68980E-06  5340   0.160E-02    0.318E-03
DAV:   6    -0.652039604678E+02   -0.19294E-06   -0.52391E-07  4972   0.573E-03    0.808E-04
DAV:   7    -0.652039605149E+02   -0.47191E-07   -0.11287E-07  5080   0.257E-03    0.580E-04
DAV:   8    -0.652039605366E+02   -0.21605E-07   -0.23535E-08  4144   0.119E-03    0.116E-04
DAV:   9    -0.652039605361E+02    0.43224E-09   -0.22668E-09  3204   0.408E-04
  13 F= -.65203961E+02 E0= -.65195112E+02  d E =-.182542E-03
 curvature:  -4.19 expect dE=-0.925E-03 dE for cont linesearch -0.258E-04
 ZBRENT: increasing intervall
 opt :   2.3784  next Energy=   -65.203973 (dE=-0.195E-03)
 bond charge predicted
       N       E                     dE             d eps       ncg     rms          rms(c)
DAV:   1    -0.652077354202E+02   -0.37749E-02   -0.14135E-01  4500   0.244E+00    0.247E-01
DAV:   2    -0.652050383446E+02    0.26971E-02   -0.36355E-03  4588   0.373E-01    0.129E-01
DAV:   3    -0.652039990959E+02    0.10392E-02   -0.36386E-03  5124   0.320E-01    0.369E-02
DAV:   4    -0.652039765394E+02    0.22556E-04   -0.15926E-04  5092   0.826E-02    0.143E-02
DAV:   5    -0.652039703755E+02    0.61639E-05   -0.27952E-05  5344   0.322E-02    0.637E-03
DAV:   6    -0.652039713872E+02   -0.10117E-05   -0.21076E-06  4972   0.115E-02    0.162E-03
DAV:   7    -0.652039716679E+02   -0.28066E-06   -0.45909E-07  5184   0.519E-03    0.117E-03
DAV:   8    -0.652039717421E+02   -0.74240E-07   -0.10020E-07  5120   0.239E-03    0.244E-04
DAV:   9    -0.652039717428E+02   -0.71122E-09   -0.82056E-09  3472   0.717E-04
  14 F= -.65203972E+02 E0= -.65195107E+02  d E =-.193749E-03
 curvature:  -1.98 expect dE=-0.225E-02 dE for cont linesearch -0.737E-05
 ZBRENT: bracketing found
 ZBRENT: interpolating
 opt :   1.8105  next Energy=   -65.203994 (dE=-0.216E-03)
 bond charge predicted
       N       E                     dE             d eps       ncg     rms          rms(c)
DAV:   1    -0.652047137514E+02   -0.74201E-03   -0.27050E-02  4500   0.107E+00    0.109E-01
DAV:   2    -0.652041953244E+02    0.51843E-03   -0.69880E-04  4588   0.163E-01    0.563E-02
DAV:   3    -0.652039998353E+02    0.19549E-03   -0.68500E-04  5136   0.139E-01    0.160E-02
DAV:   4    -0.652039961107E+02    0.37246E-05   -0.29282E-05  5084   0.356E-02    0.628E-03
DAV:   5    -0.652039952637E+02    0.84694E-06   -0.51587E-06  5336   0.139E-02    0.274E-03
DAV:   6    -0.652039955883E+02   -0.32456E-06   -0.39274E-07  4988   0.499E-03    0.706E-04
DAV:   7    -0.652039956978E+02   -0.10948E-06   -0.85184E-08  5064   0.224E-03    0.501E-04
DAV:   8    -0.652039957039E+02   -0.61166E-08   -0.17208E-08  3868   0.103E-03
  15 F= -.65203996E+02 E0= -.65195138E+02  d E =-.217710E-03
 curvature:  -5.85 expect dE=-0.359E-02 dE for cont linesearch -0.182E-07
 trial: gam= 3.03818 g(F)=  0.349E-03 g(S)=  0.265E-03 ort =-0.222E-05 (trialstep = 0.467E-01)
 search vector abs. value=  0.152E-01
 bond charge predicted
       N       E                     dE             d eps       ncg     rms          rms(c)
DAV:   1    -0.652040728929E+02   -0.77195E-04   -0.18815E-03  4480   0.280E-01    0.280E-02
DAV:   2    -0.652040379532E+02    0.34940E-04   -0.45993E-05  4628   0.417E-02    0.147E-02
DAV:   3    -0.652040240210E+02    0.13932E-04   -0.47640E-05  5156   0.364E-02    0.430E-03
DAV:   4    -0.652040236547E+02    0.36634E-06   -0.22939E-06  5076   0.957E-03    0.149E-03
DAV:   5    -0.652040235499E+02    0.10477E-06   -0.35557E-07  5316   0.358E-03    0.785E-04
DAV:   6    -0.652040235403E+02    0.95743E-08   -0.34626E-08  4360   0.143E-03
  16 F= -.65204024E+02 E0= -.65195160E+02  d E =-.278365E-04
 ZBRENT: can't locate minimum, use default step
 trial-energy change:   -0.000028  1 .order   -0.000028   -0.000028   -0.000027
 step:   0.1867(harm=  1.1378)  dis= 0.00022  next Energy=   -65.204341 (dE=-0.345E-03)
 bond charge predicted
       N       E                     dE             d eps       ncg     rms          rms(c)
DAV:   1    -0.652045414640E+02   -0.51791E-03   -0.16893E-02  4480   0.838E-01    0.838E-02
DAV:   2    -0.652042251580E+02    0.31631E-03   -0.41336E-04  4612   0.125E-01    0.440E-02
DAV:   3    -0.652040999930E+02    0.12516E-03   -0.42958E-04  5144   0.109E-01    0.129E-02
DAV:   4    -0.652040974289E+02    0.25641E-05   -0.20768E-05  5092   0.288E-02    0.444E-03
DAV:   5    -0.652040966392E+02    0.78962E-06   -0.32491E-06  5324   0.108E-02    0.236E-03
DAV:   6    -0.652040967308E+02   -0.91530E-07   -0.32613E-07  4912   0.433E-03    0.502E-04
DAV:   7    -0.652040967497E+02   -0.18896E-07   -0.24992E-08  4840   0.118E-03    0.432E-04
DAV:   8    -0.652040967621E+02   -0.12396E-07   -0.14628E-08  3472   0.881E-04    0.576E-05
DAV:   9    -0.652040967632E+02   -0.11016E-08   -0.14408E-09  3004   0.320E-04
  17 F= -.65204097E+02 E0= -.65195215E+02  d E =-.101059E-03
 curvature:  -3.43 expect dE=-0.146E-02 dE for cont linesearch -0.505E-04
 ZBRENT: increasing intervall
 opt :   0.4668  next Energy=   -65.204199 (dE=-0.203E-03)
 bond charge predicted
       N       E                     dE             d eps       ncg     rms          rms(c)
DAV:   1    -0.652059532416E+02   -0.18565E-02   -0.67328E-02  4480   0.167E+00    0.167E-01
DAV:   2    -0.652046922451E+02    0.12610E-02   -0.16444E-03  4612   0.249E-01    0.878E-02
DAV:   3    -0.652041924585E+02    0.49979E-03   -0.17177E-03  5140   0.218E-01    0.258E-02
DAV:   4    -0.652041829255E+02    0.95330E-05   -0.82826E-05  5076   0.574E-02    0.892E-03
DAV:   5    -0.652041798794E+02    0.30461E-05   -0.13038E-05  5320   0.216E-02    0.473E-03
DAV:   6    -0.652041804125E+02   -0.53301E-06   -0.13135E-06  4896   0.869E-03    0.101E-03
DAV:   7    -0.652041804997E+02   -0.87256E-07   -0.10342E-07  5296   0.237E-03    0.876E-04
DAV:   8    -0.652041805364E+02   -0.36728E-07   -0.62970E-08  4936   0.174E-03    0.131E-04
DAV:   9    -0.652041805396E+02   -0.31848E-08   -0.33965E-09  3476   0.465E-04
  18 F= -.65204181E+02 E0= -.65195261E+02  d E =-.184836E-03
 curvature:  -6.94 expect dE=-0.224E-02 dE for cont linesearch -0.316E-04
 ZBRENT: increasing intervall
 opt :   1.0270  next Energy=   -65.204210 (dE=-0.214E-03)
 bond charge predicted
       N       E                     dE             d eps       ncg     rms          rms(c)
DAV:   1    -0.652112719065E+02   -0.70914E-02   -0.26731E-01  4480   0.333E+00    0.333E-01
DAV:   2    -0.652062593934E+02    0.50125E-02   -0.65177E-03  4608   0.497E-01    0.175E-01
DAV:   3    -0.652042630608E+02    0.19963E-02   -0.68776E-03  5124   0.437E-01    0.517E-02
DAV:   4    -0.652042266371E+02    0.36424E-04   -0.33126E-04  5076   0.115E-01    0.179E-02
DAV:   5    -0.652042145361E+02    0.12101E-04   -0.52949E-05  5316   0.435E-02    0.949E-03
DAV:   6    -0.652042170505E+02   -0.25145E-05   -0.53809E-06  4908   0.176E-02    0.205E-03
DAV:   7    -0.652042174117E+02   -0.36118E-06   -0.42823E-07  5280   0.478E-03    0.179E-03
DAV:   8    -0.652042175301E+02   -0.11836E-06   -0.26255E-07  4936   0.355E-03    0.265E-04
DAV:   9    -0.652042175387E+02   -0.85784E-08   -0.14153E-08  3580   0.942E-04
  19 F= -.65204218E+02 E0= -.65195216E+02  d E =-.221835E-03
 curvature:  -6.49 expect dE=-0.492E-02 dE for cont linesearch -0.816E-05
 ZBRENT: bracketing found
 ZBRENT: interpolating
 opt :   0.8340  next Energy=   -65.204231 (dE=-0.235E-03)
 bond charge predicted
       N       E                     dE             d eps       ncg     rms          rms(c)
DAV:   1    -0.652050629926E+02   -0.84546E-03   -0.31621E-02  4480   0.115E+00    0.115E-01
DAV:   2    -0.652044670977E+02    0.59589E-03   -0.77380E-04  4604   0.171E-01    0.601E-02
DAV:   3    -0.652042347547E+02    0.23234E-03   -0.79794E-04  5132   0.149E-01    0.176E-02
DAV:   4    -0.652042310302E+02    0.37245E-05   -0.38179E-05  5064   0.391E-02    0.607E-03
DAV:   5    -0.652042297978E+02    0.12325E-05   -0.58427E-06  5316   0.146E-02    0.318E-03
DAV:   6    -0.652042302269E+02   -0.42917E-06   -0.57405E-07  4908   0.583E-03    0.694E-04
DAV:   7    -0.652042302872E+02   -0.60287E-07   -0.45987E-08  5232   0.161E-03    0.583E-04
DAV:   8    -0.652042302896E+02   -0.24152E-08   -0.26652E-08  4052   0.116E-03
  20 F= -.65204230E+02 E0= -.65195258E+02  d E =-.234586E-03
 curvature: -10.61 expect dE=-0.543E-02 dE for cont linesearch -0.204E-09
 trial: gam= 0.68821 g(F)=  0.466E-03 g(S)=  0.462E-04 ort =-0.541E-06 (trialstep = 0.204E+00)
 search vector abs. value=  0.772E-02
 bond charge predicted
       N       E                     dE             d eps       ncg     rms          rms(c)
DAV:   1    -0.652047831693E+02   -0.55288E-03   -0.18420E-02  4480   0.884E-01    0.855E-02
DAV:   2    -0.652044570073E+02    0.32616E-03   -0.43803E-04  4620   0.129E-01    0.450E-02
DAV:   3    -0.652043242104E+02    0.13280E-03   -0.43657E-04  5168   0.110E-01    0.124E-02
DAV:   4    -0.652043220236E+02    0.21868E-05   -0.20157E-05  5092   0.287E-02    0.411E-03
DAV:   5    -0.652043213012E+02    0.72237E-06   -0.34111E-06  5296   0.114E-02    0.240E-03
DAV:   6    -0.652043213972E+02   -0.95985E-07   -0.36606E-07  4944   0.451E-03    0.627E-04
DAV:   7    -0.652043214277E+02   -0.30484E-07   -0.43490E-08  4540   0.167E-03    0.409E-04
DAV:   8    -0.652043214383E+02   -0.10632E-07   -0.14200E-08  3628   0.957E-04    0.220E-04
DAV:   9    -0.652043214413E+02   -0.30054E-08   -0.33761E-09  3164   0.473E-04
  21 F= -.65204321E+02 E0= -.65195346E+02  d E =-.911517E-04
 trial-energy change:   -0.000091  1 .order   -0.000090   -0.000104   -0.000075
 step:   0.5148(harm=  0.7303)  dis= 0.00074  next Energy=   -65.204383 (dE=-0.153E-03)
 bond charge predicted
       N       E                     dE             d eps       ncg     rms          rms(c)
DAV:   1    -0.652054674719E+02   -0.11460E-02   -0.42506E-02  4480   0.134E+00    0.130E-01
DAV:   2    -0.652047150647E+02    0.75241E-03   -0.10091E-03  4620   0.196E-01    0.684E-02
DAV:   3    -0.652044079306E+02    0.30713E-03   -0.10103E-03  5160   0.167E-01    0.188E-02
DAV:   4    -0.652044031735E+02    0.47571E-05   -0.46542E-05  5100   0.436E-02    0.627E-03
DAV:   5    -0.652044015300E+02    0.16435E-05   -0.79151E-06  5292   0.173E-02    0.365E-03
DAV:   6    -0.652044018104E+02   -0.28042E-06   -0.84175E-07  4944   0.685E-03    0.959E-04
DAV:   7    -0.652044018896E+02   -0.79137E-07   -0.10577E-07  5188   0.257E-03    0.645E-04
DAV:   8    -0.652044019130E+02   -0.23396E-07   -0.33660E-08  4120   0.142E-03    0.335E-04
DAV:   9    -0.652044019183E+02   -0.53119E-08   -0.69126E-09  3356   0.676E-04
  22 F= -.65204402E+02 E0= -.65195420E+02  d E =-.171629E-03
 curvature:  -4.59 expect dE=-0.669E-03 dE for cont linesearch -0.133E-04
 ZBRENT: increasing intervall
 opt :   1.1361  next Energy=   -65.204359 (dE=-0.128E-03)
 bond charge predicted
       N       E                     dE             d eps       ncg     rms          rms(c)
DAV:   1    -0.652086006511E+02   -0.41987E-02   -0.16908E-01  4484   0.268E+00    0.258E-01
DAV:   2    -0.652056125370E+02    0.29881E-02   -0.40050E-03  4616   0.391E-01    0.136E-01
DAV:   3    -0.652043842393E+02    0.12283E-02   -0.40460E-03  5156   0.334E-01    0.377E-02
DAV:   4    -0.652043662940E+02    0.17945E-04   -0.18578E-04  5084   0.871E-02    0.126E-02
DAV:   5    -0.652043597428E+02    0.65512E-05   -0.31921E-05  5300   0.347E-02    0.729E-03
DAV:   6    -0.652043610813E+02   -0.13386E-05   -0.33182E-06  4940   0.136E-02    0.194E-03
DAV:   7    -0.652043614378E+02   -0.35648E-06   -0.44269E-07  5324   0.526E-03    0.131E-03
DAV:   8    -0.652043615262E+02   -0.88365E-07   -0.14239E-07  5016   0.288E-03    0.686E-04
DAV:   9    -0.652043615409E+02   -0.14723E-07   -0.25920E-08  4340   0.123E-03    0.207E-04
DAV:  10    -0.652043615484E+02   -0.74442E-08   -0.53740E-09  3188   0.575E-04
  23 F= -.65204362E+02 E0= -.65195361E+02  d E =-.131259E-03
 curvature:  14.94 expect dE= 0.105E-01 dE for cont linesearch  0.163E-03
 ZBRENT: bracketing found
 ZBRENT: interpolating
 opt :   0.7262  next Energy=   -65.204418 (dE=-0.187E-03)
 bond charge predicted
       N       E                     dE             d eps       ncg     rms          rms(c)
DAV:   1    -0.652062608252E+02   -0.18993E-02   -0.73515E-02  4480   0.177E+00    0.171E-01
DAV:   2    -0.652049536863E+02    0.13071E-02   -0.17487E-03  4608   0.258E-01    0.897E-02
DAV:   3    -0.652044280079E+02    0.52568E-03   -0.17229E-03  5152   0.218E-01    0.245E-02
DAV:   4    -0.652044212905E+02    0.67174E-05   -0.79203E-05  5096   0.570E-02    0.812E-03
DAV:   5    -0.652044187363E+02    0.25542E-05   -0.13150E-05  5300   0.224E-02    0.473E-03
DAV:   6    -0.652044195286E+02   -0.79234E-06   -0.14671E-06  4952   0.908E-03    0.124E-03
DAV:   7    -0.652044196932E+02   -0.16452E-06   -0.16329E-07  5348   0.322E-03    0.822E-04
DAV:   8    -0.652044197300E+02   -0.36810E-07   -0.57050E-08  4980   0.185E-03    0.441E-04
DAV:   9    -0.652044197282E+02    0.18094E-08   -0.95491E-09  3388   0.776E-04
  24 F= -.65204420E+02 E0= -.65195432E+02  d E =-.189439E-03
 curvature:  -1.45 expect dE=-0.309E-03 dE for cont linesearch -0.301E-08
 trial: gam= 0.43815 g(F)=  0.177E-03 g(S)=  0.356E-04 ort =-0.400E-05 (trialstep = 0.309E+00)
 search vector abs. value=  0.169E-02
 bond charge predicted
       N       E                     dE             d eps       ncg     rms          rms(c)
DAV:   1    -0.652046813748E+02   -0.26164E-03   -0.90258E-03  4516   0.636E-01    0.599E-02
DAV:   2    -0.652045252727E+02    0.15610E-03   -0.25548E-04  4716   0.104E-01    0.310E-02
DAV:   3    -0.652044687108E+02    0.56562E-04   -0.20504E-04  5112   0.774E-02    0.874E-03
DAV:   4    -0.652044666866E+02    0.20242E-05   -0.11753E-05  5144   0.227E-02    0.343E-03
DAV:   5    -0.652044660855E+02    0.60106E-06   -0.21182E-06  5292   0.886E-03    0.168E-03
DAV:   6    -0.652044660881E+02   -0.26273E-08   -0.17048E-07  5000   0.313E-03    0.415E-04
DAV:   7    -0.652044660938E+02   -0.56332E-08   -0.19370E-08  3820   0.113E-03
  25 F= -.65204466E+02 E0= -.65195498E+02  d E =-.463656E-04
 trial-energy change:   -0.000046  1 .order   -0.000047   -0.000065   -0.000028
 step:   0.5723(harm=  0.5467)  dis= 0.00068  next Energy=   -65.204478 (dE=-0.583E-04)
 bond charge predicted
       N       E                     dE             d eps       ncg     rms          rms(c)
DAV:   1    -0.652046339825E+02   -0.16789E-03   -0.65837E-03  4512   0.543E-01    0.511E-02
DAV:   2    -0.652045201069E+02    0.11388E-03   -0.18639E-04  4704   0.886E-02    0.265E-02
DAV:   3    -0.652044787864E+02    0.41320E-04   -0.14960E-04  5108   0.661E-02    0.746E-03
DAV:   4    -0.652044772804E+02    0.15060E-05   -0.85973E-06  5160   0.194E-02    0.293E-03
DAV:   5    -0.652044768298E+02    0.45056E-06   -0.15546E-06  5308   0.759E-03    0.143E-03
DAV:   6    -0.652044768243E+02    0.55095E-08   -0.12558E-07  4992   0.269E-03    0.356E-04
DAV:   7    -0.652044768272E+02   -0.28926E-08   -0.13997E-08  3480   0.969E-04
  26 F= -.65204477E+02 E0= -.65195525E+02  d E =-.570991E-04
 curvature:  -2.17 expect dE=-0.206E-03 dE for cont linesearch -0.182E-06
 trial: gam= 0.50335 g(F)=  0.915E-04 g(S)=  0.350E-05 ort =-0.119E-04 (trialstep = 0.361E+00)
 search vector abs. value=  0.511E-03
 bond charge predicted
       N       E                     dE             d eps       ncg     rms          rms(c)
DAV:   1    -0.652045741513E+02   -0.97327E-04   -0.41295E-03  4524   0.447E-01    0.378E-02
DAV:   2    -0.652045148443E+02    0.59307E-04   -0.11612E-04  4876   0.722E-02    0.196E-02
DAV:   3    -0.652044938200E+02    0.21024E-04   -0.77895E-05  5152   0.485E-02    0.577E-03
DAV:   4    -0.652044928979E+02    0.92218E-06   -0.55712E-06  5124   0.150E-02    0.230E-03
DAV:   5    -0.652044925881E+02    0.30977E-06   -0.98213E-07  5348   0.602E-03    0.111E-03
DAV:   6    -0.652044925712E+02    0.16924E-07   -0.75195E-08  4948   0.204E-03    0.263E-04
DAV:   7    -0.652044925718E+02   -0.61709E-09   -0.63382E-09  3384   0.674E-04
  27 F= -.65204493E+02 E0= -.65195530E+02  d E =-.157446E-04
 trial-energy change:   -0.000016  1 .order   -0.000016   -0.000032   -0.000000
 step:   0.3673(harm=  0.3667)  dis= 0.00033  next Energy=   -65.204493 (dE=-0.157E-04)
 bond charge predicted
       N       E                     dE             d eps       ncg     rms          rms(c)
DAV:   1    -0.652044926027E+02   -0.31514E-07   -0.11334E-06  4668   0.744E-03    0.638E-04
DAV:   2    -0.652044925900E+02    0.12669E-07   -0.32752E-08  4500   0.122E-03    0.331E-04
DAV:   3    -0.652044925811E+02    0.89271E-08   -0.23274E-08  3472   0.867E-04
  28 F= -.65204493E+02 E0= -.65195530E+02  d E =-.157539E-04
 curvature:  -1.04 expect dE=-0.332E-04 dE for cont linesearch -0.316E-09
 trial: gam= 0.25542 g(F)=  0.275E-04 g(S)=  0.454E-05 ort =-0.394E-06 (trialstep = 0.363E+00)
 search vector abs. value=  0.652E-04
 bond charge predicted
       N       E                     dE             d eps       ncg     rms          rms(c)
DAV:   1    -0.652045056013E+02   -0.13011E-04   -0.69186E-04  4480   0.198E-01    0.105E-02
DAV:   2    -0.652045020503E+02    0.35509E-05   -0.12942E-05  5240   0.256E-02    0.592E-03
DAV:   3    -0.652045002481E+02    0.18022E-05   -0.68159E-06  5276   0.152E-02    0.168E-03
DAV:   4    -0.652045001684E+02    0.79714E-07   -0.43518E-07  5164   0.487E-03    0.101E-03
DAV:   5    -0.652045001491E+02    0.19326E-07   -0.11661E-07  5828   0.212E-03    0.357E-04
DAV:   6    -0.652045001445E+02    0.45670E-08   -0.76851E-09  3140   0.720E-04
  29 F= -.65204500E+02 E0= -.65195531E+02  d E =-.756344E-05
 trial-energy change:   -0.000008  1 .order   -0.000007   -0.000012   -0.000003
 step:   0.4867(harm=  0.5047)  dis= 0.00025  next Energy=   -65.204501 (dE=-0.813E-05)
 bond charge predicted
       N       E                     dE             d eps       ncg     rms          rms(c)
DAV:   1    -0.652045014180E+02   -0.12689E-05   -0.81062E-05  4480   0.678E-02    0.359E-03
DAV:   2    -0.652045010341E+02    0.38390E-06   -0.15181E-06  5240   0.874E-03    0.202E-03
DAV:   3    -0.652045008347E+02    0.19948E-06   -0.79290E-07  5280   0.518E-03    0.567E-04
DAV:   4    -0.652045008203E+02    0.14383E-07   -0.50100E-08  5164   0.165E-03    0.340E-04
DAV:   5    -0.652045008158E+02    0.45113E-08   -0.11315E-08  3004   0.722E-04
  30 F= -.65204501E+02 E0= -.65195529E+02  d E =-.823467E-05
 curvature:  -0.51 expect dE=-0.166E-05 dE for cont linesearch -0.598E-08
 trial: gam= 0.08627 g(F)=  0.311E-05 g(S)=  0.174E-06 ort = 0.877E-06 (trialstep = 0.387E+00)
 search vector abs. value=  0.392E-05
 bond charge predicted
       N       E                     dE             d eps       ncg     rms          rms(c)
DAV:   1    -0.652045015247E+02   -0.70440E-06   -0.54661E-05  4680   0.559E-02    0.222E-03
DAV:   2    -0.652045014732E+02    0.51441E-07   -0.11814E-06  5396   0.801E-03    0.132E-03
DAV:   3    -0.652045014269E+02    0.46373E-07   -0.16277E-07  5256   0.276E-03    0.507E-04
DAV:   4    -0.652045014195E+02    0.73949E-08   -0.22802E-08  3844   0.109E-03
  31 F= -.65204501E+02 E0= -.65195529E+02  d E =-.603702E-06
 trial-energy change:   -0.000001  1 .order   -0.000001   -0.000001    0.000000
 step:   0.3629(harm=  0.3629)  dis= 0.00006  next Energy=   -65.204501 (dE=-0.609E-06)
 bond charge predicted
       N       E                     dE             d eps       ncg     rms          rms(c)
DAV:   1    -0.652045014220E+02    0.48501E-08   -0.24930E-07  4768   0.373E-03    0.164E-04
DAV:   2    -0.652045014212E+02    0.78921E-09   -0.58178E-09  2388   0.583E-04
  32 F= -.65204501E+02 E0= -.65195529E+02  d E =-.605458E-06
 curvature:  -0.21 expect dE=-0.143E-06 dE for cont linesearch -0.523E-09
 trial: gam= 0.25722 g(F)=  0.619E-06 g(S)=  0.560E-07 ort =-0.984E-07 (trialstep = 0.382E+00)
 search vector abs. value=  0.884E-06
 bond charge predicted
       N       E                     dE             d eps       ncg     rms          rms(c)
DAV:   1    -0.652045016165E+02   -0.19448E-06   -0.10141E-05  4512   0.245E-02    0.101E-03
DAV:   2    -0.652045015982E+02    0.18293E-07   -0.20855E-07  5280   0.343E-03    0.564E-04
DAV:   3    -0.652045015839E+02    0.14260E-07   -0.49654E-08  5052   0.141E-03    0.208E-04
DAV:   4    -0.652045015804E+02    0.35191E-08   -0.59953E-09  2456   0.554E-04
  33 F= -.65204502E+02 E0= -.65195530E+02  d E =-.159200E-06
 trial-energy change:   -0.000000  1 .order   -0.000000   -0.000000   -0.000000
 step:   0.5392(harm=  0.5392)  dis= 0.00005  next Energy=   -65.204502 (dE=-0.175E-06)
 bond charge predicted
       N       E                     dE             d eps       ncg     rms          rms(c)
DAV:   1    -0.652045015972E+02   -0.13302E-07   -0.16807E-06  4536   0.100E-02    0.425E-04
DAV:   2    -0.652045015937E+02    0.35211E-08   -0.33547E-08  4820   0.139E-03
  34 F= -.65204502E+02 E0= -.65195531E+02  d E =-.172500E-06
 curvature:  -0.37 expect dE=-0.980E-07 dE for cont linesearch -0.305E-09
 trial: gam= 0.33931 g(F)=  0.133E-06 g(S)=  0.135E-06 ort = 0.271E-07 (trialstep = 0.414E+00)
 search vector abs. value=  0.388E-06
 bond charge predicted
       N       E                     dE             d eps       ncg     rms          rms(c)
DAV:   1    -0.652045017215E+02   -0.12429E-06   -0.44416E-06  4564   0.152E-02    0.108E-03
DAV:   2    -0.652045016820E+02    0.39515E-07   -0.10471E-07  5172   0.222E-03    0.586E-04
DAV:   3    -0.652045016582E+02    0.23819E-07   -0.67213E-08  5208   0.144E-03    0.168E-04
DAV:   4    -0.652045016539E+02    0.43417E-08   -0.33349E-09  2552   0.407E-04
  35 F= -.65204502E+02 E0= -.65195531E+02  d E =-.601378E-07
 trial-energy change:   -0.000000  1 .order   -0.000000   -0.000000   -0.000000
 step:   0.5789(harm=  0.5789)  dis= 0.00001  next Energy=   -65.204502 (dE=-0.800E-07)
 bond charge predicted
       N       E                     dE             d eps       ncg     rms          rms(c)
DAV:   1    -0.652045016709E+02   -0.12699E-07   -0.72404E-07  4556   0.610E-03    0.423E-04
DAV:   2    -0.652045016664E+02    0.45468E-08   -0.15488E-08  2996   0.899E-04
  36 F= -.65204502E+02 E0= -.65195531E+02  d E =-.726320E-07
 curvature:  -0.41 expect dE=-0.110E-06 dE for cont linesearch -0.884E-08
 trial: gam= 0.00000 g(F)=  0.114E-06 g(S)=  0.158E-06 ort = 0.919E-07 (trialstep = 0.447E+00)
 search vector abs. value=  0.272E-06
 reached required accuracy - stopping structural energy minimisation
 writing wavefunctions
Sun Mar  6 01:11:26 CST 2022
