Sun Mar  6 00:52:14 CST 2022
 running on   48 total cores
 distrk:  each k-point on   48 cores,    1 groups
 distr:  one band on   24 cores,    2 groups
 using from now: INCAR     
 vasp.5.3.5 31Mar14 (build Jan 11 2016 19:50:55) complex                        
  
 POSCAR found type information on POSCAR  B  C 
 POSCAR found :  2 types and       8 ions
 scaLAPACK will be used

 ----------------------------------------------------------------------------- 
|                                                                             |
|           W    W    AA    RRRRR   N    N  II  N    N   GGGG   !!!           |
|           W    W   A  A   R    R  NN   N  II  NN   N  G    G  !!!           |
|           W    W  A    A  R    R  N N  N  II  N N  N  G       !!!           |
|           W WW W  AAAAAA  RRRRR   N  N N  II  N  N N  G  GGG   !            |
|           WW  WW  A    A  R   R   N   NN  II  N   NN  G    G                |
|           W    W  A    A  R    R  N    N  II  N    N   GGGG   !!!           |
|                                                                             |
|      For optimal performance we recommend to set                            |
|        NCORE= 4 - approx SQRT( number of cores)                             |
|      NCORE specifies how many cores store one orbital (NPAR=cpu/NCORE).     |
|      This setting can  greatly improve the performance of VASP for DFT.     |
|      The default, NPAR=number of cores might be grossly inefficient         |
|      on modern multi-core architectures or massively parallel machines.     |
|      Do your own testing !!!!                                               |
|      Unfortunately you need to use the default for GW and RPA calculations. |
|      (for HF NCORE is supported but not extensively tested yet)             |
|                                                                             |
 ----------------------------------------------------------------------------- 

 LDA part: xc-table for Pade appr. of Perdew
 POSCAR, INCAR and KPOINTS ok, starting setup
 WARNING: small aliasing (wrap around) errors must be expected
 FFT: planning ...
 WAVECAR not read
 entering main loop
       N       E                     dE             d eps       ncg     rms          rms(c)
DAV:   1     0.135728984818E+03    0.13573E+03   -0.18530E+04  4480   0.184E+03
DAV:   2    -0.567075452894E+02   -0.19244E+03   -0.18424E+03  6000   0.299E+02
DAV:   3    -0.672647579998E+02   -0.10557E+02   -0.10392E+02  5540   0.702E+01
DAV:   4    -0.674916269350E+02   -0.22687E+00   -0.22612E+00  5740   0.109E+01
DAV:   5    -0.674974233632E+02   -0.57964E-02   -0.57950E-02  5744   0.167E+00    0.131E+01
DAV:   6    -0.628816750513E+02    0.46157E+01   -0.84628E+00  5236   0.181E+01    0.696E+00
DAV:   7    -0.620268247985E+02    0.85485E+00   -0.24264E+00  5048   0.997E+00    0.311E+00
DAV:   8    -0.619547396084E+02    0.72085E-01   -0.28702E-01  5380   0.347E+00    0.105E+00
DAV:   9    -0.619577944070E+02   -0.30548E-02   -0.18964E-02  5416   0.966E-01    0.363E-01
DAV:  10    -0.619588816967E+02   -0.10873E-02   -0.30608E-03  5128   0.389E-01    0.723E-02
DAV:  11    -0.619591660279E+02   -0.28433E-03   -0.39084E-04  5544   0.138E-01    0.357E-02
DAV:  12    -0.619592865223E+02   -0.12049E-03   -0.12730E-04  5064   0.758E-02    0.114E-02
DAV:  13    -0.619593045351E+02   -0.18013E-04   -0.22004E-05  5404   0.312E-02    0.520E-03
DAV:  14    -0.619593073795E+02   -0.28444E-05   -0.27867E-06  5208   0.117E-02    0.177E-03
DAV:  15    -0.619593078620E+02   -0.48250E-06   -0.67264E-07  5344   0.550E-03    0.586E-04
DAV:  16    -0.619593079064E+02   -0.44403E-07   -0.59834E-08  5416   0.167E-03    0.282E-04
DAV:  17    -0.619593079166E+02   -0.10190E-07   -0.13608E-08  3972   0.839E-04    0.766E-05
DAV:  18    -0.619593079195E+02   -0.29099E-08   -0.19834E-09  3316   0.341E-04
   1 F= -.61959308E+02 E0= -.61947633E+02  d E =-.619593E+02
 curvature:   0.00 expect dE= 0.000E+00 dE for cont linesearch  0.000E+00
 trial: gam= 0.00000 g(F)=  0.418E-02 g(S)=  0.966E-01 ort = 0.000E+00 (trialstep = 0.100E+01)
 search vector abs. value=  0.101E+00
 bond charge predicted
       N       E                     dE             d eps       ncg     rms          rms(c)
DAV:   1    -0.621564690734E+02   -0.19716E+00   -0.53615E+00  4480   0.157E+01    0.150E+00
DAV:   2    -0.620690682350E+02    0.87401E-01   -0.15243E-01  5372   0.261E+00    0.762E-01
DAV:   3    -0.620409217956E+02    0.28146E-01   -0.78228E-02  5112   0.166E+00    0.178E-01
DAV:   4    -0.620400964060E+02    0.82539E-03   -0.37541E-03  5500   0.438E-01    0.940E-02
DAV:   5    -0.620399662190E+02    0.13019E-03   -0.48527E-04  5632   0.143E-01    0.379E-02
DAV:   6    -0.620399651295E+02    0.10895E-05   -0.62910E-05  5596   0.561E-02    0.140E-02
DAV:   7    -0.620399677790E+02   -0.26495E-05   -0.13411E-05  5784   0.246E-02    0.472E-03
DAV:   8    -0.620399685247E+02   -0.74573E-06   -0.15049E-06  5292   0.869E-03    0.196E-03
DAV:   9    -0.620399686577E+02   -0.13295E-06   -0.28210E-07  5744   0.361E-03    0.649E-04
DAV:  10    -0.620399686799E+02   -0.22231E-07   -0.37420E-08  5072   0.135E-03    0.261E-04
DAV:  11    -0.620399686874E+02   -0.74465E-08   -0.47206E-09  3220   0.523E-04
   2 F= -.62039969E+02 E0= -.62027732E+02  d E =-.806608E-01
 trial-energy change:   -0.080661  1 .order   -0.082102   -0.100814   -0.063391
 step:   2.6939(harm=  2.6939)  dis= 0.01859  next Energy=   -62.095098 (dE=-0.136E+00)
 bond charge predicted
       N       E                     dE             d eps       ncg     rms          rms(c)
DAV:   1    -0.624209199814E+02   -0.38095E+00   -0.14744E+01  4480   0.257E+01    0.246E+00
DAV:   2    -0.621763328329E+02    0.24459E+00   -0.42249E-01  5304   0.436E+00    0.125E+00
DAV:   3    -0.620969018790E+02    0.79431E-01   -0.22656E-01  5156   0.279E+00    0.296E-01
DAV:   4    -0.620947154858E+02    0.21864E-02   -0.10429E-02  5472   0.736E-01    0.160E-01
DAV:   5    -0.620943302297E+02    0.38526E-03   -0.16027E-03  5624   0.255E-01    0.604E-02
DAV:   6    -0.620943376120E+02   -0.73823E-05   -0.19280E-04  5488   0.982E-02    0.233E-02
DAV:   7    -0.620943486043E+02   -0.10992E-04   -0.38314E-05  5632   0.424E-02    0.835E-03
DAV:   8    -0.620943516107E+02   -0.30064E-05   -0.59786E-06  5296   0.165E-02    0.373E-03
DAV:   9    -0.620943519416E+02   -0.33092E-06   -0.11839E-06  5604   0.731E-03    0.121E-03
DAV:  10    -0.620943520175E+02   -0.75921E-07   -0.13556E-07  5272   0.259E-03    0.464E-04
DAV:  11    -0.620943520336E+02   -0.16044E-07   -0.12772E-08  3432   0.858E-04    0.168E-04
DAV:  12    -0.620943520408E+02   -0.72473E-08   -0.50052E-09  3212   0.519E-04
   3 F= -.62094352E+02 E0= -.62081309E+02  d E =-.135044E+00
 curvature:  -1.35 expect dE=-0.709E+00 dE for cont linesearch -0.733E-03
 trial: gam= 5.14592 g(F)=  0.444E+00 g(S)=  0.821E-01 ort = 0.741E-02 (trialstep = 0.412E-01)
 search vector abs. value=  0.327E+01
 bond charge predicted
       N       E                     dE             d eps       ncg     rms          rms(c)
DAV:   1    -0.621234537688E+02   -0.29102E-01   -0.31442E-01  4480   0.377E+00    0.351E-01
DAV:   2    -0.621185586991E+02    0.48951E-02   -0.79998E-03  5264   0.592E-01    0.176E-01
DAV:   3    -0.621169762196E+02    0.15825E-02   -0.48563E-03  5252   0.405E-01    0.430E-02
DAV:   4    -0.621169405964E+02    0.35623E-04   -0.21649E-04  5376   0.104E-01    0.210E-02
DAV:   5    -0.621169333873E+02    0.72091E-05   -0.28880E-05  5452   0.352E-02    0.890E-03
DAV:   6    -0.621169335386E+02   -0.15136E-06   -0.29973E-06  5360   0.121E-02    0.347E-03
DAV:   7    -0.621169337481E+02   -0.20949E-06   -0.52744E-07  5748   0.482E-03    0.107E-03
DAV:   8    -0.621169337916E+02   -0.43488E-07   -0.65746E-08  5256   0.176E-03    0.363E-04
DAV:   9    -0.621169338000E+02   -0.83824E-08   -0.12893E-08  3288   0.835E-04
   4 F= -.62116934E+02 E0= -.62103350E+02  d E =-.225818E-01
 ZBRENT: can't locate minimum, use default step
 trial-energy change:   -0.022582  1 .order   -0.022621   -0.023277   -0.021965
 step:   0.1650(harm=  0.7318)  dis= 0.00669  next Energy=   -62.300816 (dE=-0.206E+00)
 bond charge predicted
       N       E                     dE             d eps       ncg     rms          rms(c)
DAV:   1    -0.622352039765E+02   -0.11827E+00   -0.27855E+00  4480   0.112E+01    0.104E+00
DAV:   2    -0.621912010264E+02    0.44003E-01   -0.71473E-02  5248   0.177E+00    0.521E-01
DAV:   3    -0.621770561927E+02    0.14145E-01   -0.44563E-02  5272   0.122E+00    0.130E-01
DAV:   4    -0.621767549538E+02    0.30124E-03   -0.20222E-03  5372   0.318E-01    0.627E-02
DAV:   5    -0.621766935880E+02    0.61366E-04   -0.27065E-04  5400   0.108E-01    0.273E-02
DAV:   6    -0.621766973314E+02   -0.37434E-05   -0.28615E-05  5376   0.373E-02    0.101E-02
DAV:   7    -0.621766999446E+02   -0.26132E-05   -0.46658E-06  5736   0.144E-02    0.329E-03
DAV:   8    -0.621767003980E+02   -0.45343E-06   -0.63974E-07  5492   0.545E-03    0.116E-03
DAV:   9    -0.621767004831E+02   -0.85036E-07   -0.14367E-07  5172   0.267E-03    0.397E-04
DAV:  10    -0.621767004937E+02   -0.10683E-07   -0.18795E-08  3628   0.993E-04    0.198E-04
DAV:  11    -0.621767004996E+02   -0.58185E-08   -0.42210E-09  3056   0.488E-04
   5 F= -.62176700E+02 E0= -.62161429E+02  d E =-.823485E-01
 curvature:  -0.69 expect dE=-0.189E+00 dE for cont linesearch -0.415E-01
 ZBRENT: increasing intervall
 opt :   0.4125  next Energy=   -62.264023 (dE=-0.170E+00)
 bond charge predicted
       N       E                     dE             d eps       ncg     rms          rms(c)
DAV:   1    -0.624939430173E+02   -0.31724E+00   -0.10770E+01  4480   0.218E+01    0.204E+00
DAV:   2    -0.623193265946E+02    0.17462E+00   -0.28447E-01  5200   0.354E+00    0.101E+00
DAV:   3    -0.622641081777E+02    0.55218E-01   -0.17751E-01  5276   0.243E+00    0.261E-01
DAV:   4    -0.622629412762E+02    0.11669E-02   -0.84161E-03  5332   0.649E-01    0.126E-01
DAV:   5    -0.622627044853E+02    0.23679E-03   -0.11454E-03  5348   0.223E-01    0.571E-02
DAV:   6    -0.622627290731E+02   -0.24588E-04   -0.13178E-04  5488   0.794E-02    0.199E-02
DAV:   7    -0.622627413465E+02   -0.12273E-04   -0.19647E-05  5760   0.299E-02    0.693E-03
DAV:   8    -0.622627435798E+02   -0.22333E-05   -0.34110E-06  5572   0.126E-02    0.259E-03
DAV:   9    -0.622627439818E+02   -0.40202E-06   -0.77844E-07  5144   0.610E-03    0.976E-04
DAV:  10    -0.622627440495E+02   -0.67605E-07   -0.13066E-07  5468   0.246E-03    0.473E-04
DAV:  11    -0.622627440683E+02   -0.18825E-07   -0.18268E-08  3424   0.104E-03    0.118E-04
DAV:  12    -0.622627440715E+02   -0.31873E-08   -0.33806E-09  3136   0.437E-04
   6 F= -.62262744E+02 E0= -.62244949E+02  d E =-.168392E+00
 curvature:  -1.46 expect dE=-0.109E+00 dE for cont linesearch -0.329E-01
 ZBRENT: increasing intervall
 opt :   0.9075  next Energy=   -62.312806 (dE=-0.218E+00)
 bond charge predicted
       N       E                     dE             d eps       ncg     rms          rms(c)
DAV:   1    -0.632032289973E+02   -0.94048E+00   -0.40317E+01  4480   0.416E+01    0.391E+00
DAV:   2    -0.625241585572E+02    0.67907E+00   -0.11223E+00  5128   0.707E+00    0.195E+00
DAV:   3    -0.623094959606E+02    0.21466E+00   -0.72603E-01  5248   0.486E+00    0.535E-01
DAV:   4    -0.623046790971E+02    0.48169E-02   -0.37279E-02  5272   0.137E+00    0.253E-01
DAV:   5    -0.623036721795E+02    0.10069E-02   -0.60961E-03  5348   0.496E-01    0.118E-01
DAV:   6    -0.623038535553E+02   -0.18138E-03   -0.70118E-04  5488   0.181E-01    0.322E-02
DAV:   7    -0.623039014463E+02   -0.47891E-04   -0.13717E-04  5276   0.751E-02    0.174E-02
DAV:   8    -0.623039137018E+02   -0.12255E-04   -0.25861E-05  5528   0.317E-02    0.763E-03
DAV:   9    -0.623039167740E+02   -0.30722E-05   -0.56596E-06  5244   0.169E-02    0.272E-03
DAV:  10    -0.623039173816E+02   -0.60763E-06   -0.10182E-06  5428   0.712E-03    0.107E-03
DAV:  11    -0.623039174506E+02   -0.68955E-07   -0.86185E-08  5336   0.220E-03    0.488E-04
DAV:  12    -0.623039174790E+02   -0.28443E-07   -0.25675E-08  4284   0.116E-03    0.114E-04
DAV:  13    -0.623039174806E+02   -0.15170E-08   -0.22564E-09  3064   0.347E-04
   7 F= -.62303917E+02 E0= -.62283570E+02  d E =-.209565E+00
 curvature:  -2.22 expect dE=-0.109E+01 dE for cont linesearch -0.470E-02
 ZBRENT: bracketing found
 ZBRENT: interpolating
 opt :   0.7914  next Energy=   -62.308750 (dE=-0.214E+00)
 bond charge predicted
       N       E                     dE             d eps       ncg     rms          rms(c)
DAV:   1    -0.623555208932E+02   -0.51603E-01   -0.21717E+00  4480   0.993E+00    0.926E-01
DAV:   2    -0.623208052718E+02    0.34716E-01   -0.64421E-02  5168   0.162E+00    0.442E-01
DAV:   3    -0.623106979996E+02    0.10107E-01   -0.31398E-02  5324   0.105E+00    0.124E-01
DAV:   4    -0.623103516522E+02    0.34635E-03   -0.19489E-03  5364   0.304E-01    0.685E-02
DAV:   5    -0.623102966084E+02    0.55044E-04   -0.29442E-04  5448   0.112E-01    0.284E-02
DAV:   6    -0.623102982852E+02   -0.16767E-05   -0.46411E-05  5644   0.486E-02    0.124E-02
DAV:   7    -0.623103019228E+02   -0.36377E-05   -0.10481E-05  5408   0.220E-02    0.364E-03
DAV:   8    -0.623103026052E+02   -0.68234E-06   -0.12707E-06  5632   0.771E-03    0.162E-03
DAV:   9    -0.623103027689E+02   -0.16373E-06   -0.21770E-07  5472   0.338E-03    0.713E-04
DAV:  10    -0.623103028191E+02   -0.50190E-07   -0.64251E-08  5136   0.176E-03    0.215E-04
DAV:  11    -0.623103028207E+02   -0.15871E-08   -0.40823E-09  3332   0.495E-04
   8 F= -.62310303E+02 E0= -.62290148E+02  d E =-.215951E+00
 curvature:  -2.28 expect dE=-0.616E+00 dE for cont linesearch -0.110E-04
 trial: gam= 1.00318 g(F)=  0.256E+00 g(S)=  0.144E-01 ort = 0.398E-02 (trialstep = 0.175E+00)
 search vector abs. value=  0.357E+01
 bond charge predicted
       N       E                     dE             d eps       ncg     rms          rms(c)
DAV:   1    -0.625033429940E+02   -0.19304E+00   -0.60684E+00  4480   0.160E+01    0.166E+00
DAV:   2    -0.623869166479E+02    0.11643E+00   -0.19389E-01  5052   0.271E+00    0.777E-01
DAV:   3    -0.623528350777E+02    0.34082E-01   -0.95935E-02  5232   0.180E+00    0.204E-01
DAV:   4    -0.623517036030E+02    0.11315E-02   -0.56220E-03  5392   0.515E-01    0.120E-01
DAV:   5    -0.623515293108E+02    0.17429E-03   -0.78461E-04  5640   0.182E-01    0.436E-02
DAV:   6    -0.623515422426E+02   -0.12932E-04   -0.10214E-04  5400   0.734E-02    0.172E-02
DAV:   7    -0.623515549053E+02   -0.12663E-04   -0.20346E-05  5380   0.305E-02    0.614E-03
DAV:   8    -0.623515572176E+02   -0.23123E-05   -0.30612E-06  5404   0.117E-02    0.217E-03
DAV:   9    -0.623515574900E+02   -0.27232E-06   -0.60585E-07  5344   0.530E-03    0.700E-04
DAV:  10    -0.623515575273E+02   -0.37378E-07   -0.76494E-08  5416   0.197E-03    0.307E-04
DAV:  11    -0.623515575394E+02   -0.12110E-07   -0.83903E-09  3376   0.681E-04    0.115E-04
DAV:  12    -0.623515575439E+02   -0.45020E-08   -0.21273E-09  2764   0.337E-04
   9 F= -.62351558E+02 E0= -.62331649E+02  d E =-.412547E-01
 trial-energy change:   -0.041255  1 .order   -0.041659   -0.048055   -0.035264
 step:   0.6585(harm=  0.6585)  dis= 0.01686  next Energy=   -62.400572 (dE=-0.903E-01)
 bond charge predicted
       N       E                     dE             d eps       ncg     rms          rms(c)
DAV:   1    -0.634956178538E+02   -0.11441E+01   -0.42513E+01  4480   0.416E+01    0.422E+00
DAV:   2    -0.626745038444E+02    0.82111E+00   -0.12444E+00  4856   0.717E+00    0.208E+00
DAV:   3    -0.624077012406E+02    0.26680E+00   -0.85572E-01  5148   0.510E+00    0.546E-01
DAV:   4    -0.624032309975E+02    0.44702E-02   -0.32835E-02  5340   0.131E+00    0.296E-01
DAV:   5    -0.624020240819E+02    0.12069E-02   -0.73498E-03  5448   0.537E-01    0.111E-01
DAV:   6    -0.624022837271E+02   -0.25965E-03   -0.72723E-04  5292   0.195E-01    0.390E-02
DAV:   7    -0.624023911903E+02   -0.10746E-03   -0.19720E-04  5248   0.900E-02    0.195E-02
DAV:   8    -0.624024158126E+02   -0.24622E-04   -0.53294E-05  5544   0.438E-02    0.940E-03
DAV:   9    -0.624024163114E+02   -0.49873E-06   -0.10805E-05  5176   0.208E-02    0.251E-03
DAV:  10    -0.624024167058E+02   -0.39446E-06   -0.96015E-07  5628   0.715E-03    0.125E-03
DAV:  11    -0.624024168094E+02   -0.10357E-06   -0.11767E-07  5140   0.240E-03    0.511E-04
DAV:  12    -0.624024168501E+02   -0.40679E-07   -0.22775E-08  4208   0.106E-03    0.190E-04
DAV:  13    -0.624024168579E+02   -0.78235E-08   -0.35794E-09  3160   0.438E-04
  10 F= -.62402417E+02 E0= -.62384188E+02  d E =-.921140E-01
 curvature:  -4.29 expect dE=-0.483E+00 dE for cont linesearch -0.592E-03
 trial: gam= 0.44619 g(F)=  0.106E+00 g(S)=  0.695E-02 ort = 0.222E-01 (trialstep = 0.272E+00)
 search vector abs. value=  0.843E+00
 bond charge predicted
       N       E                     dE             d eps       ncg     rms          rms(c)
DAV:   1    -0.625146484769E+02   -0.11223E+00   -0.36298E+00  4480   0.126E+01    0.129E+00
DAV:   2    -0.624459040757E+02    0.68744E-01   -0.14014E-01  4924   0.230E+00    0.588E-01
DAV:   3    -0.624273363688E+02    0.18568E-01   -0.53421E-02  5316   0.135E+00    0.168E-01
DAV:   4    -0.624263402050E+02    0.99616E-03   -0.40889E-03  5424   0.424E-01    0.898E-02
DAV:   5    -0.624262025387E+02    0.13767E-03   -0.62978E-04  5592   0.155E-01    0.335E-02
DAV:   6    -0.624262105924E+02   -0.80536E-05   -0.80321E-05  5368   0.636E-02    0.149E-02
DAV:   7    -0.624262205269E+02   -0.99345E-05   -0.17403E-05  5232   0.287E-02    0.523E-03
DAV:   8    -0.624262224733E+02   -0.19464E-05   -0.29479E-06  5604   0.111E-02    0.238E-03
DAV:   9    -0.624262227732E+02   -0.29986E-06   -0.66047E-07  5288   0.546E-03    0.753E-04
DAV:  10    -0.624262228123E+02   -0.39141E-07   -0.63866E-08  5524   0.178E-03    0.289E-04
DAV:  11    -0.624262228234E+02   -0.11046E-07   -0.86874E-09  3364   0.670E-04    0.102E-04
DAV:  12    -0.624262228276E+02   -0.42116E-08   -0.18417E-09  2844   0.322E-04
  11 F= -.62426223E+02 E0= -.62408526E+02  d E =-.238060E-01
 trial-energy change:   -0.023806  1 .order   -0.023850   -0.033329   -0.014370
 step:   0.4780(harm=  0.4780)  dis= 0.00867  next Energy=   -62.431712 (dE=-0.293E-01)
 bond charge predicted
       N       E                     dE             d eps       ncg     rms          rms(c)
DAV:   1    -0.624805757530E+02   -0.54353E-01   -0.20290E+00  4480   0.944E+00    0.957E-01
DAV:   2    -0.624425519375E+02    0.38024E-01   -0.78475E-02  4900   0.172E+00    0.439E-01
DAV:   3    -0.624322262942E+02    0.10326E-01   -0.29971E-02  5324   0.101E+00    0.126E-01
DAV:   4    -0.624316704980E+02    0.55580E-03   -0.22885E-03  5428   0.317E-01    0.676E-02
DAV:   5    -0.624315899690E+02    0.80529E-04   -0.37001E-04  5620   0.118E-01    0.250E-02
DAV:   6    -0.624315939549E+02   -0.39859E-05   -0.47431E-05  5368   0.486E-02    0.114E-02
DAV:   7    -0.624315996870E+02   -0.57321E-05   -0.10221E-05  5228   0.221E-02    0.397E-03
DAV:   8    -0.624316008113E+02   -0.11242E-05   -0.16981E-06  5616   0.847E-03    0.182E-03
DAV:   9    -0.624316009920E+02   -0.18072E-06   -0.38829E-07  5280   0.419E-03    0.577E-04
DAV:  10    -0.624316010138E+02   -0.21784E-07   -0.36176E-08  5320   0.134E-03    0.222E-04
DAV:  11    -0.624316010210E+02   -0.72046E-08   -0.53582E-09  3272   0.527E-04
  12 F= -.62431601E+02 E0= -.62414142E+02  d E =-.291842E-01
 curvature:  -1.64 expect dE=-0.905E-01 dE for cont linesearch -0.230E-06
 trial: gam= 0.61148 g(F)=  0.501E-01 g(S)=  0.494E-02 ort = 0.343E-03 (trialstep = 0.313E+00)
 search vector abs. value=  0.371E+00
 bond charge predicted
       N       E                     dE             d eps       ncg     rms          rms(c)
DAV:   1    -0.624880899335E+02   -0.56489E-01   -0.21345E+00  4480   0.994E+00    0.906E-01
DAV:   2    -0.624534821380E+02    0.34608E-01   -0.69341E-02  5172   0.167E+00    0.429E-01
DAV:   3    -0.624435872613E+02    0.98949E-02   -0.31309E-02  5300   0.100E+00    0.117E-01
DAV:   4    -0.624431902662E+02    0.39700E-03   -0.16674E-03  5460   0.285E-01    0.596E-02
DAV:   5    -0.624431247380E+02    0.65528E-04   -0.31238E-04  5476   0.114E-01    0.243E-02
DAV:   6    -0.624431323310E+02   -0.75930E-05   -0.40043E-05  5356   0.457E-02    0.983E-03
DAV:   7    -0.624431370715E+02   -0.47405E-05   -0.89513E-06  5364   0.210E-02    0.374E-03
DAV:   8    -0.624431380278E+02   -0.95634E-06   -0.15492E-06  5708   0.843E-03    0.160E-03
DAV:   9    -0.624431381655E+02   -0.13767E-06   -0.29522E-07  5476   0.386E-03    0.724E-04
DAV:  10    -0.624431382154E+02   -0.49955E-07   -0.71234E-08  5312   0.188E-03    0.242E-04
DAV:  11    -0.624431382227E+02   -0.73296E-08   -0.62057E-09  3312   0.559E-04
  13 F= -.62443138E+02 E0= -.62425804E+02  d E =-.115372E-01
 trial-energy change:   -0.011537  1 .order   -0.011509   -0.017289   -0.005729
 step:   0.4683(harm=  0.4683)  dis= 0.00957  next Energy=   -62.444530 (dE=-0.129E-01)
 bond charge predicted
       N       E                     dE             d eps       ncg     rms          rms(c)
DAV:   1    -0.624552623776E+02   -0.12124E-01   -0.51507E-01  4480   0.490E+00    0.444E-01
DAV:   2    -0.624470012031E+02    0.82612E-02   -0.16841E-02  5160   0.818E-01    0.210E-01
DAV:   3    -0.624446472640E+02    0.23539E-02   -0.74347E-03  5324   0.489E-01    0.576E-02
DAV:   4    -0.624445487224E+02    0.98542E-04   -0.40530E-04  5472   0.140E-01    0.294E-02
DAV:   5    -0.624445323731E+02    0.16349E-04   -0.74706E-05  5500   0.557E-02    0.119E-02
DAV:   6    -0.624445339342E+02   -0.15612E-05   -0.97794E-06  5368   0.226E-02    0.484E-03
DAV:   7    -0.624445349748E+02   -0.10406E-05   -0.21802E-06  5340   0.104E-02    0.184E-03
DAV:   8    -0.624445352002E+02   -0.22532E-06   -0.37678E-07  5692   0.417E-03    0.799E-04
DAV:   9    -0.624445352330E+02   -0.32843E-07   -0.70936E-08  5336   0.190E-03    0.362E-04
DAV:  10    -0.624445352453E+02   -0.12349E-07   -0.15899E-08  3816   0.935E-04    0.115E-04
DAV:  11    -0.624445352483E+02   -0.29152E-08   -0.27220E-09  2752   0.376E-04
  14 F= -.62444535E+02 E0= -.62427284E+02  d E =-.129342E-01
 curvature:  -1.57 expect dE=-0.564E-01 dE for cont linesearch -0.161E-06
 trial: gam= 0.57584 g(F)=  0.318E-01 g(S)=  0.410E-02 ort =-0.195E-03 (trialstep = 0.344E+00)
 search vector abs. value=  0.159E+00
 bond charge predicted
       N       E                     dE             d eps       ncg     rms          rms(c)
DAV:   1    -0.624725243610E+02   -0.27989E-01   -0.11331E+00  4480   0.742E+00    0.613E-01
DAV:   2    -0.624573166820E+02    0.15208E-01   -0.33026E-02  5224   0.122E+00    0.300E-01
DAV:   3    -0.624527125930E+02    0.46041E-02   -0.16020E-02  5288   0.724E-01    0.827E-02
DAV:   4    -0.624525341116E+02    0.17848E-03   -0.93252E-04  5404   0.217E-01    0.403E-02
DAV:   5    -0.624525006172E+02    0.33494E-04   -0.16580E-04  5372   0.838E-02    0.177E-02
DAV:   6    -0.624525040877E+02   -0.34705E-05   -0.20068E-05  5776   0.322E-02    0.749E-03
DAV:   7    -0.624525065224E+02   -0.24347E-05   -0.44608E-06  5616   0.148E-02    0.286E-03
DAV:   8    -0.624525070949E+02   -0.57252E-06   -0.81084E-07  5388   0.635E-03    0.113E-03
DAV:   9    -0.624525072109E+02   -0.11602E-06   -0.16387E-07  5276   0.282E-03    0.384E-04
DAV:  10    -0.624525072238E+02   -0.12850E-07   -0.16687E-08  3732   0.935E-04    0.165E-04
DAV:  11    -0.624525072298E+02   -0.60427E-08   -0.35526E-09  3008   0.434E-04
  15 F= -.62452507E+02 E0= -.62435170E+02  d E =-.797198E-02
 trial-energy change:   -0.007972  1 .order   -0.007952   -0.012315   -0.003589
 step:   0.4857(harm=  0.4857)  dis= 0.00749  next Energy=   -62.453226 (dE=-0.869E-02)
 bond charge predicted
       N       E                     dE             d eps       ncg     rms          rms(c)
DAV:   1    -0.624565623650E+02   -0.40551E-02   -0.18969E-01  4480   0.304E+00    0.250E-01
DAV:   2    -0.624540414626E+02    0.25209E-02   -0.55288E-03  5212   0.498E-01    0.122E-01
DAV:   3    -0.624532798409E+02    0.76162E-03   -0.26592E-03  5304   0.296E-01    0.339E-02
DAV:   4    -0.624532493863E+02    0.30455E-04   -0.15649E-04  5424   0.885E-02    0.165E-02
DAV:   5    -0.624532435728E+02    0.58136E-05   -0.27540E-05  5368   0.342E-02    0.727E-03
DAV:   6    -0.624532440025E+02   -0.42975E-06   -0.34132E-06  5776   0.133E-02    0.309E-03
DAV:   7    -0.624532443523E+02   -0.34980E-06   -0.76442E-07  5608   0.615E-03    0.118E-03
DAV:   8    -0.624532444422E+02   -0.89912E-07   -0.13714E-07  5380   0.261E-03    0.467E-04
DAV:   9    -0.624532444615E+02   -0.19214E-07   -0.26554E-08  4412   0.116E-03    0.156E-04
DAV:  10    -0.624532444641E+02   -0.26648E-08   -0.32321E-09  3048   0.427E-04
  16 F= -.62453244E+02 E0= -.62435890E+02  d E =-.870922E-02
 curvature:  -1.08 expect dE=-0.170E-01 dE for cont linesearch -0.155E-07
 trial: gam= 0.41123 g(F)=  0.152E-01 g(S)=  0.595E-03 ort =-0.479E-04 (trialstep = 0.372E+00)
 search vector abs. value=  0.426E-01
 bond charge predicted
       N       E                     dE             d eps       ncg     rms          rms(c)
DAV:   1    -0.624606116113E+02   -0.73671E-02   -0.40940E-01  4480   0.464E+00    0.312E-01
DAV:   2    -0.624574837601E+02    0.31279E-02   -0.11884E-02  5548   0.744E-01    0.159E-01
DAV:   3    -0.624563992086E+02    0.10846E-02   -0.37142E-03  5580   0.381E-01    0.515E-02
DAV:   4    -0.624563395291E+02    0.59679E-04   -0.36254E-04  5484   0.129E-01    0.265E-02
DAV:   5    -0.624563287501E+02    0.10779E-04   -0.68421E-05  5964   0.495E-02    0.103E-02
DAV:   6    -0.624563287631E+02   -0.12973E-07   -0.66634E-06  5632   0.193E-02    0.483E-03
DAV:   7    -0.624563295558E+02   -0.79273E-06   -0.18092E-06  5076   0.965E-03    0.174E-03
DAV:   8    -0.624563297126E+02   -0.15678E-06   -0.28413E-07  5888   0.378E-03    0.653E-04
DAV:   9    -0.624563297381E+02   -0.25565E-07   -0.60853E-08  5164   0.173E-03    0.314E-04
DAV:  10    -0.624563297404E+02   -0.22940E-08   -0.59667E-09  3440   0.571E-04
  17 F= -.62456330E+02 E0= -.62439351E+02  d E =-.308528E-02
 trial-energy change:   -0.003085  1 .order   -0.003063   -0.005891   -0.000235
 step:   0.3876(harm=  0.3879)  dis= 0.00684  next Energy=   -62.456334 (dE=-0.309E-02)
 bond charge predicted
       N       E                     dE             d eps       ncg     rms          rms(c)
DAV:   1    -0.624563415239E+02   -0.11786E-04   -0.67072E-04  4488   0.188E-01    0.126E-02
DAV:   2    -0.624563365259E+02    0.49980E-05   -0.19579E-05  5556   0.302E-02    0.642E-03
DAV:   3    -0.624563347645E+02    0.17615E-05   -0.60562E-06  5576   0.154E-02    0.210E-03
DAV:   4    -0.624563346540E+02    0.11042E-06   -0.59564E-07  5484   0.524E-03    0.108E-03
DAV:   5    -0.624563346279E+02    0.26141E-07   -0.11222E-07  5948   0.200E-03    0.418E-04
DAV:   6    -0.624563346239E+02    0.40404E-08   -0.94675E-09  2992   0.783E-04
  18 F= -.62456335E+02 E0= -.62439374E+02  d E =-.309016E-02
 curvature:  -0.52 expect dE=-0.365E-02 dE for cont linesearch -0.128E-09
 trial: gam= 0.43642 g(F)=  0.681E-02 g(S)=  0.185E-03 ort = 0.323E-05 (trialstep = 0.375E+00)
 search vector abs. value=  0.151E-01
 bond charge predicted
       N       E                     dE             d eps       ncg     rms          rms(c)
DAV:   1    -0.624585499591E+02   -0.22153E-02   -0.13020E-01  4480   0.263E+00    0.133E-01
DAV:   2    -0.624581405302E+02    0.40943E-03   -0.27059E-03  5536   0.368E-01    0.750E-02
DAV:   3    -0.624579641604E+02    0.17637E-03   -0.72933E-04  5272   0.168E-01    0.246E-02
DAV:   4    -0.624579561638E+02    0.79966E-05   -0.79930E-05  5276   0.622E-02    0.132E-02
DAV:   5    -0.624579547519E+02    0.14119E-05   -0.13604E-05  5348   0.250E-02    0.459E-03
DAV:   6    -0.624579549398E+02   -0.18789E-06   -0.13635E-06  5540   0.823E-03    0.207E-03
DAV:   7    -0.624579550405E+02   -0.10066E-06   -0.23801E-07  5172   0.335E-03    0.725E-04
DAV:   8    -0.624579550542E+02   -0.13698E-07   -0.43197E-08  4708   0.139E-03    0.299E-04
DAV:   9    -0.624579550603E+02   -0.61264E-08   -0.85885E-09  3236   0.699E-04
  19 F= -.62457955E+02 E0= -.62441135E+02  d E =-.162044E-02
 trial-energy change:   -0.001620  1 .order   -0.001619   -0.002625   -0.000613
 step:   0.4898(harm=  0.4898)  dis= 0.00733  next Energy=   -62.458047 (dE=-0.171E-02)
 bond charge predicted
       N       E                     dE             d eps       ncg     rms          rms(c)
DAV:   1    -0.624581024622E+02   -0.14741E-03   -0.12045E-02  4488   0.801E-01    0.403E-02
DAV:   2    -0.624580648640E+02    0.37598E-04   -0.25037E-04  5536   0.112E-01    0.228E-02
DAV:   3    -0.624580486050E+02    0.16259E-04   -0.67353E-05  5280   0.513E-02    0.750E-03
DAV:   4    -0.624580478040E+02    0.80102E-06   -0.74725E-06  5284   0.190E-02    0.403E-03
DAV:   5    -0.624580476466E+02    0.15736E-06   -0.12620E-06  5348   0.762E-03    0.140E-03
DAV:   6    -0.624580476500E+02   -0.33626E-08   -0.12720E-07  5520   0.251E-03    0.633E-04
DAV:   7    -0.624580476542E+02   -0.42585E-08   -0.20086E-08  3416   0.102E-03
  20 F= -.62458048E+02 E0= -.62441273E+02  d E =-.171303E-02
 curvature:  -0.53 expect dE=-0.156E-02 dE for cont linesearch -0.325E-08
 trial: gam= 0.42123 g(F)=  0.276E-02 g(S)=  0.189E-03 ort =-0.964E-05 (trialstep = 0.398E+00)
 search vector abs. value=  0.562E-02
 bond charge predicted
       N       E                     dE             d eps       ncg     rms          rms(c)
DAV:   1    -0.624588953463E+02   -0.84770E-03   -0.61013E-02  4480   0.183E+00    0.767E-02
DAV:   2    -0.624588534188E+02    0.41927E-04   -0.12862E-03  5692   0.254E-01    0.458E-02
DAV:   3    -0.624588069020E+02    0.46517E-04   -0.17756E-04  5316   0.910E-02    0.152E-02
DAV:   4    -0.624588051276E+02    0.17744E-05   -0.25830E-05  5508   0.348E-02    0.752E-03
DAV:   5    -0.624588051460E+02   -0.18352E-07   -0.37391E-06  5824   0.120E-02    0.303E-03
DAV:   6    -0.624588051752E+02   -0.29266E-07   -0.41615E-07  5760   0.434E-03    0.138E-03
DAV:   7    -0.624588051969E+02   -0.21688E-07   -0.13372E-07  5176   0.264E-03    0.386E-04
DAV:   8    -0.624588052030E+02   -0.60829E-08   -0.14402E-08  3340   0.887E-04
  21 F= -.62458805E+02 E0= -.62441878E+02  d E =-.757549E-03
 trial-energy change:   -0.000758  1 .order   -0.000756   -0.001174   -0.000339
 step:   0.5601(harm=  0.5601)  dis= 0.00398  next Energy=   -62.458873 (dE=-0.825E-03)
 bond charge predicted
       N       E                     dE             d eps       ncg     rms          rms(c)
DAV:   1    -0.624588894278E+02   -0.84231E-04   -0.10057E-02  4480   0.745E-01    0.311E-02
DAV:   2    -0.624588825078E+02    0.69200E-05   -0.21215E-04  5692   0.103E-01    0.186E-02
DAV:   3    -0.624588749275E+02    0.75802E-05   -0.29134E-05  5316   0.369E-02    0.620E-03
DAV:   4    -0.624588746162E+02    0.31134E-06   -0.42451E-06  5500   0.141E-02    0.305E-03
DAV:   5    -0.624588746143E+02    0.18156E-08   -0.61725E-07  5836   0.487E-03    0.123E-03
DAV:   6    -0.624588746157E+02   -0.13990E-08   -0.68067E-08  5280   0.177E-03
  22 F= -.62458875E+02 E0= -.62441886E+02  d E =-.826961E-03
 curvature:  -0.53 expect dE=-0.153E-02 dE for cont linesearch -0.381E-09
 trial: gam= 0.96839 g(F)=  0.278E-02 g(S)=  0.829E-04 ort = 0.200E-05 (trialstep = 0.297E+00)
 search vector abs. value=  0.814E-02
 bond charge predicted
       N       E                     dE             d eps       ncg     rms          rms(c)
DAV:   1    -0.624595214111E+02   -0.64680E-03   -0.41897E-02  4480   0.152E+00    0.566E-02
DAV:   2    -0.624595223446E+02   -0.93349E-06   -0.61124E-04  5888   0.176E-01    0.356E-02
DAV:   3    -0.624595042000E+02    0.18145E-04   -0.79144E-05  5292   0.615E-02    0.960E-03
DAV:   4    -0.624595044958E+02   -0.29579E-06   -0.90302E-06  5496   0.208E-02    0.496E-03
DAV:   5    -0.624595047138E+02   -0.21804E-06   -0.97706E-07  5856   0.666E-03    0.177E-03
DAV:   6    -0.624595047257E+02   -0.11879E-07   -0.15720E-07  5324   0.283E-03    0.543E-04
DAV:   7    -0.624595047344E+02   -0.87557E-08   -0.33340E-08  4408   0.130E-03
  23 F= -.62459505E+02 E0= -.62442574E+02  d E =-.630119E-03
 trial-energy change:   -0.000630  1 .order   -0.000629   -0.000853   -0.000406
 step:   0.5677(harm=  0.5677)  dis= 0.00511  next Energy=   -62.459688 (dE=-0.814E-03)
 bond charge predicted
       N       E                     dE             d eps       ncg     rms          rms(c)
DAV:   1    -0.624597033729E+02   -0.19865E-03   -0.34572E-02  4480   0.138E+00    0.513E-02
DAV:   2    -0.624597042299E+02   -0.85701E-06   -0.50525E-04  5892   0.160E-01    0.323E-02
DAV:   3    -0.624596893207E+02    0.14909E-04   -0.64580E-05  5292   0.556E-02    0.883E-03
DAV:   4    -0.624596895650E+02   -0.24424E-06   -0.73835E-06  5536   0.188E-02    0.450E-03
DAV:   5    -0.624596897423E+02   -0.17732E-06   -0.79561E-07  5824   0.602E-03    0.161E-03
DAV:   6    -0.624596897517E+02   -0.94144E-08   -0.12649E-07  5336   0.254E-03    0.491E-04
DAV:   7    -0.624596897587E+02   -0.69365E-08   -0.26924E-08  4188   0.117E-03
  24 F= -.62459690E+02 E0= -.62442812E+02  d E =-.815143E-03
 curvature:  -0.81 expect dE=-0.133E-02 dE for cont linesearch -0.533E-09
 trial: gam= 0.58110 g(F)=  0.138E-02 g(S)=  0.268E-03 ort =-0.232E-05 (trialstep = 0.352E+00)
 search vector abs. value=  0.440E-02
 bond charge predicted
       N       E                     dE             d eps       ncg     rms          rms(c)
DAV:   1    -0.624601087415E+02   -0.41899E-03   -0.33011E-02  4480   0.134E+00    0.551E-02
DAV:   2    -0.624600966575E+02    0.12084E-04   -0.59045E-04  5684   0.175E-01    0.320E-02
DAV:   3    -0.624600872044E+02    0.94531E-05   -0.75394E-05  5532   0.607E-02    0.130E-02
DAV:   4    -0.624600866626E+02    0.54173E-06   -0.12814E-05  5652   0.246E-02    0.647E-03
DAV:   5    -0.624600868039E+02   -0.14126E-06   -0.17168E-06  5316   0.947E-03    0.175E-03
DAV:   6    -0.624600867976E+02    0.62346E-08   -0.24209E-07  5800   0.345E-03    0.977E-04
DAV:   7    -0.624600867781E+02    0.19508E-07   -0.46416E-08  4984   0.156E-03    0.277E-04
DAV:   8    -0.624600867723E+02    0.58194E-08   -0.63344E-09  2868   0.577E-04
  25 F= -.62460087E+02 E0= -.62443282E+02  d E =-.397014E-03
 trial-energy change:   -0.000397  1 .order   -0.000399   -0.000579   -0.000218
 step:   0.5751(harm=  0.5644)  dis= 0.00491  next Energy=   -62.460156 (dE=-0.466E-03)
 bond charge predicted
       N       E                     dE             d eps       ncg     rms          rms(c)
DAV:   1    -0.624601615372E+02   -0.74759E-04   -0.13357E-02  4480   0.849E-01    0.350E-02
DAV:   2    -0.624601564489E+02    0.50883E-05   -0.23917E-04  5684   0.111E-01    0.203E-02
DAV:   3    -0.624601525188E+02    0.39301E-05   -0.30525E-05  5532   0.386E-02    0.828E-03
DAV:   4    -0.624601522596E+02    0.25923E-06   -0.51763E-06  5652   0.156E-02    0.412E-03
DAV:   5    -0.624601522765E+02   -0.16921E-07   -0.69608E-07  5312   0.602E-03    0.111E-03
DAV:   6    -0.624601522658E+02    0.10655E-07   -0.97249E-08  5336   0.219E-03    0.621E-04
DAV:   7    -0.624601522514E+02    0.14424E-07   -0.16676E-08  3064   0.981E-04    0.172E-04
DAV:   8    -0.624601522476E+02    0.37523E-08   -0.38640E-09  2712   0.432E-04
  26 F= -.62460152E+02 E0= -.62443393E+02  d E =-.462489E-03
 curvature:  -0.75 expect dE=-0.949E-03 dE for cont linesearch -0.154E-06
 trial: gam= 0.77925 g(F)=  0.112E-02 g(S)=  0.147E-03 ort =-0.300E-04 (trialstep = 0.396E+00)
 search vector abs. value=  0.389E-02
 bond charge predicted
       N       E                     dE             d eps       ncg     rms          rms(c)
DAV:   1    -0.624604894458E+02   -0.33719E-03   -0.40986E-02  4480   0.150E+00    0.604E-02
DAV:   2    -0.624604714219E+02    0.18024E-04   -0.73964E-04  5836   0.188E-01    0.353E-02
DAV:   3    -0.624604549022E+02    0.16520E-04   -0.73117E-05  5428   0.611E-02    0.143E-02
DAV:   4    -0.624604549621E+02   -0.59898E-07   -0.14124E-05  5380   0.255E-02    0.537E-03
DAV:   5    -0.624604551674E+02   -0.20525E-06   -0.16334E-06  5916   0.850E-03    0.218E-03
DAV:   6    -0.624604552264E+02   -0.59063E-07   -0.13730E-07  5536   0.272E-03    0.765E-04
DAV:   7    -0.624604552303E+02   -0.38926E-08   -0.33346E-08  4176   0.133E-03
  27 F= -.62460455E+02 E0= -.62443591E+02  d E =-.302983E-03
 trial-energy change:   -0.000303  1 .order   -0.000304   -0.000491   -0.000117
 step:   0.5221(harm=  0.5196)  dis= 0.00368  next Energy=   -62.460474 (dE=-0.321E-03)
 bond charge predicted
       N       E                     dE             d eps       ncg     rms          rms(c)
DAV:   1    -0.624604769158E+02   -0.21689E-04   -0.41401E-03  4480   0.477E-01    0.192E-02
DAV:   2    -0.624604750351E+02    0.18807E-05   -0.74900E-05  5836   0.599E-02    0.112E-02
DAV:   3    -0.624604733749E+02    0.16603E-05   -0.73973E-06  5432   0.194E-02    0.455E-03
DAV:   4    -0.624604733816E+02   -0.67566E-08   -0.14382E-06  5380   0.815E-03    0.170E-03
DAV:   5    -0.624604733993E+02   -0.17696E-07   -0.16707E-07  5924   0.272E-03    0.693E-04
DAV:   6    -0.624604734032E+02   -0.38767E-08   -0.12758E-08  3132   0.873E-04
  28 F= -.62460473E+02 E0= -.62443576E+02  d E =-.321156E-03
 curvature:  -0.81 expect dE=-0.763E-03 dE for cont linesearch -0.492E-08
 trial: gam= 0.71421 g(F)=  0.740E-03 g(S)=  0.197E-03 ort =-0.485E-05 (trialstep = 0.421E+00)
 search vector abs. value=  0.291E-02
 bond charge predicted
       N       E                     dE             d eps       ncg     rms          rms(c)
DAV:   1    -0.624607422131E+02   -0.26881E-03   -0.33089E-02  4480   0.136E+00    0.527E-02
DAV:   2    -0.624607330774E+02    0.91357E-05   -0.48278E-04  5952   0.152E-01    0.315E-02
DAV:   3    -0.624607241162E+02    0.89612E-05   -0.43647E-05  5324   0.460E-02    0.115E-02
DAV:   4    -0.624607248025E+02   -0.68626E-06   -0.67220E-06  5788   0.175E-02    0.408E-03
DAV:   5    -0.624607251120E+02   -0.30955E-06   -0.76818E-07  5476   0.586E-03    0.160E-03
DAV:   6    -0.624607252315E+02   -0.11949E-06   -0.10277E-07  5572   0.234E-03    0.482E-04
DAV:   7    -0.624607252525E+02   -0.21000E-07   -0.20640E-08  3340   0.107E-03    0.155E-04
DAV:   8    -0.624607252548E+02   -0.22458E-08   -0.45331E-09  2736   0.477E-04
  29 F= -.62460725E+02 E0= -.62443814E+02  d E =-.251852E-03
 trial-energy change:   -0.000252  1 .order   -0.000250   -0.000394   -0.000106
 step:   0.5684(harm=  0.5770)  dis= 0.00260  next Energy=   -62.460744 (dE=-0.270E-03)
 bond charge predicted
       N       E                     dE             d eps       ncg     rms          rms(c)
DAV:   1    -0.624607470147E+02   -0.21762E-04   -0.40269E-03  4480   0.475E-01    0.184E-02
DAV:   2    -0.624607460787E+02    0.93601E-06   -0.58722E-05  5952   0.529E-02    0.110E-02
DAV:   3    -0.624607451794E+02    0.89937E-06   -0.53303E-06  5332   0.161E-02    0.400E-03
DAV:   4    -0.624607453520E+02   -0.17266E-06   -0.81898E-07  5788   0.610E-03    0.142E-03
DAV:   5    -0.624607454275E+02   -0.75492E-07   -0.93650E-08  5380   0.205E-03    0.557E-04
DAV:   6    -0.624607454609E+02   -0.33426E-07   -0.10925E-08  3040   0.816E-04    0.162E-04
DAV:   7    -0.624607454683E+02   -0.73296E-08   -0.32918E-09  2648   0.424E-04
  30 F= -.62460745E+02 E0= -.62443829E+02  d E =-.272065E-03
 curvature:  -0.90 expect dE=-0.493E-03 dE for cont linesearch -0.565E-07
 trial: gam= 0.58165 g(F)=  0.357E-03 g(S)=  0.193E-03 ort = 0.135E-04 (trialstep = 0.451E+00)
 search vector abs. value=  0.155E-02
 bond charge predicted
       N       E                     dE             d eps       ncg     rms          rms(c)
DAV:   1    -0.624609345734E+02   -0.18911E-03   -0.23769E-02  4480   0.115E+00    0.436E-02
DAV:   2    -0.624609248203E+02    0.97530E-05   -0.41187E-04  5700   0.141E-01    0.259E-02
DAV:   3    -0.624609112632E+02    0.13557E-04   -0.47639E-05  5320   0.466E-02    0.790E-03
DAV:   4    -0.624609112331E+02    0.30121E-07   -0.63024E-06  5896   0.168E-02    0.352E-03
DAV:   5    -0.624609113121E+02   -0.79074E-07   -0.50836E-07  5468   0.497E-03    0.145E-03
DAV:   6    -0.624609113388E+02   -0.26630E-07   -0.68361E-08  5336   0.192E-03    0.448E-04
DAV:   7    -0.624609113462E+02   -0.74815E-08   -0.12244E-08  3112   0.832E-04
  31 F= -.62460911E+02 E0= -.62444024E+02  d E =-.165878E-03
 trial-energy change:   -0.000166  1 .order   -0.000167   -0.000252   -0.000081
 step:   0.6740(harm=  0.6666)  dis= 0.00204  next Energy=   -62.460931 (dE=-0.186E-03)
 bond charge predicted
       N       E                     dE             d eps       ncg     rms          rms(c)
DAV:   1    -0.624609364138E+02   -0.25075E-04   -0.58265E-03  4480   0.568E-01    0.216E-02
DAV:   2    -0.624609339003E+02    0.25135E-05   -0.10102E-04  5704   0.697E-02    0.128E-02
DAV:   3    -0.624609305247E+02    0.33756E-05   -0.11733E-05  5324   0.231E-02    0.391E-03
DAV:   4    -0.624609305184E+02    0.62673E-08   -0.15513E-06  5896   0.836E-03    0.175E-03
DAV:   5    -0.624609305365E+02   -0.18012E-07   -0.12613E-07  5468   0.247E-03    0.718E-04
DAV:   6    -0.624609305434E+02   -0.69645E-08   -0.14780E-08  3240   0.958E-04
  32 F= -.62460931E+02 E0= -.62444058E+02  d E =-.185075E-03
 curvature:  -0.93 expect dE=-0.744E-03 dE for cont linesearch -0.262E-07
 trial: gam= 1.50095 g(F)=  0.695E-03 g(S)=  0.110E-03 ort =-0.663E-05 (trialstep = 0.180E+00)
 search vector abs. value=  0.428E-02
 bond charge predicted
       N       E                     dE             d eps       ncg     rms          rms(c)
DAV:   1    -0.624610723767E+02   -0.14184E-03   -0.10036E-02  4480   0.734E-01    0.295E-02
DAV:   2    -0.624610620452E+02    0.10331E-04   -0.15494E-04  5804   0.860E-02    0.172E-02
DAV:   3    -0.624610548806E+02    0.71646E-05   -0.22977E-05  5304   0.314E-02    0.503E-03
DAV:   4    -0.624610548724E+02    0.81754E-08   -0.26327E-06  5824   0.107E-02    0.237E-03
DAV:   5    -0.624610548773E+02   -0.48833E-08   -0.23383E-07  5596   0.334E-03    0.875E-04
DAV:   6    -0.624610548819E+02   -0.46043E-08   -0.31774E-08  4780   0.135E-03
  33 F= -.62461055E+02 E0= -.62444154E+02  d E =-.124338E-03
 ZBRENT: can't locate minimum, use default step
 trial-energy change:   -0.000124  1 .order   -0.000125   -0.000143   -0.000107
 step:   0.7184(harm=  0.7239)  dis= 0.00314  next Energy=   -62.461218 (dE=-0.287E-03)
 bond charge predicted
       N       E                     dE             d eps       ncg     rms          rms(c)
DAV:   1    -0.624613696317E+02   -0.31475E-03   -0.90338E-02  4480   0.220E+00    0.887E-02
DAV:   2    -0.624612782971E+02    0.91335E-04   -0.13977E-03  5804   0.258E-01    0.516E-02
DAV:   3    -0.624612151995E+02    0.63098E-04   -0.20618E-04  5308   0.942E-02    0.151E-02
DAV:   4    -0.624612152508E+02   -0.51298E-07   -0.23667E-05  5832   0.319E-02    0.713E-03
DAV:   5    -0.624612153694E+02   -0.11861E-06   -0.20732E-06  5588   0.995E-03    0.262E-03
DAV:   6    -0.624612154549E+02   -0.85427E-07   -0.28940E-07  5476   0.402E-03    0.803E-04
DAV:   7    -0.624612154891E+02   -0.34198E-07   -0.56132E-08  5116   0.166E-03    0.335E-04
DAV:   8    -0.624612154980E+02   -0.89681E-08   -0.76893E-09  3344   0.679E-04
  34 F= -.62461215E+02 E0= -.62444230E+02  d E =-.284955E-03
 curvature:  -1.95 expect dE=-0.146E-02 dE for cont linesearch -0.128E-07
 trial: gam= 0.86469 g(F)=  0.506E-03 g(S)=  0.243E-03 ort = 0.529E-05 (trialstep = 0.287E+00)
 search vector abs. value=  0.396E-02
 bond charge predicted
       N       E                     dE             d eps       ncg     rms          rms(c)
DAV:   1    -0.624614080354E+02   -0.19255E-03   -0.25487E-02  4480   0.118E+00    0.435E-02
DAV:   2    -0.624613952774E+02    0.12758E-04   -0.39078E-04  5788   0.138E-01    0.267E-02
DAV:   3    -0.624613810469E+02    0.14230E-04   -0.54070E-05  5252   0.493E-02    0.672E-03
DAV:   4    -0.624613813123E+02   -0.26536E-06   -0.64699E-06  5604   0.172E-02    0.365E-03
DAV:   5    -0.624613814602E+02   -0.14796E-06   -0.56913E-07  5948   0.503E-03    0.156E-03
DAV:   6    -0.624613815312E+02   -0.70940E-07   -0.88276E-08  5500   0.216E-03    0.515E-04
DAV:   7    -0.624613815559E+02   -0.24746E-07   -0.17465E-08  3252   0.104E-03    0.149E-04
DAV:   8    -0.624613815593E+02   -0.33788E-08   -0.37507E-09  2712   0.441E-04
  35 F= -.62461382E+02 E0= -.62444367E+02  d E =-.166061E-03
 trial-energy change:   -0.000166  1 .order   -0.000165   -0.000217   -0.000114
 step:   0.5865(harm=  0.6082)  dis= 0.00255  next Energy=   -62.461442 (dE=-0.226E-03)
 bond charge predicted
       N       E                     dE             d eps       ncg     rms          rms(c)
DAV:   1    -0.624614748767E+02   -0.93321E-04   -0.27625E-02  4480   0.123E+00    0.454E-02
DAV:   2    -0.624614608119E+02    0.14065E-04   -0.42362E-04  5788   0.143E-01    0.279E-02
DAV:   3    -0.624614453186E+02    0.15493E-04   -0.58856E-05  5252   0.514E-02    0.699E-03
DAV:   4    -0.624614456011E+02   -0.28253E-06   -0.70248E-06  5604   0.179E-02    0.381E-03
DAV:   5    -0.624614457576E+02   -0.15647E-06   -0.61836E-07  5948   0.524E-03    0.162E-03
DAV:   6    -0.624614458323E+02   -0.74720E-07   -0.96098E-08  5596   0.225E-03    0.537E-04
DAV:   7    -0.624614458583E+02   -0.25973E-07   -0.18907E-08  3284   0.108E-03    0.155E-04
DAV:   8    -0.624614458619E+02   -0.35855E-08   -0.40865E-09  2736   0.460E-04
  36 F= -.62461446E+02 E0= -.62444401E+02  d E =-.230364E-03
 curvature:  -1.59 expect dE=-0.709E-03 dE for cont linesearch -0.302E-06
 trial: gam= 0.57670 g(F)=  0.407E-03 g(S)=  0.393E-04 ort = 0.274E-04 (trialstep = 0.347E+00)
 search vector abs. value=  0.179E-02
 bond charge predicted
       N       E                     dE             d eps       ncg     rms          rms(c)
DAV:   1    -0.624615592747E+02   -0.11342E-03   -0.18773E-02  4480   0.103E+00    0.371E-02
DAV:   2    -0.624615479308E+02    0.11344E-04   -0.31537E-04  5608   0.124E-01    0.228E-02
DAV:   3    -0.624615344473E+02    0.13484E-04   -0.53131E-05  5284   0.492E-02    0.575E-03
DAV:   4    -0.624615344391E+02    0.81923E-08   -0.68135E-06  5364   0.184E-02    0.373E-03
DAV:   5    -0.624615345142E+02   -0.75049E-07   -0.82504E-07  5936   0.590E-03    0.150E-03
DAV:   6    -0.624615345476E+02   -0.33443E-07   -0.77409E-08  5292   0.204E-03    0.643E-04
DAV:   7    -0.624615345729E+02   -0.25247E-07   -0.21324E-08  3288   0.112E-03    0.146E-04
DAV:   8    -0.624615345753E+02   -0.24916E-08   -0.33629E-09  2708   0.431E-04
  37 F= -.62461535E+02 E0= -.62444524E+02  d E =-.887135E-04
 trial-energy change:   -0.000089  1 .order   -0.000089   -0.000160   -0.000017
 step:   0.3894(harm=  0.3894)  dis= 0.00109  next Energy=   -62.461536 (dE=-0.900E-04)
 bond charge predicted
       N       E                     dE             d eps       ncg     rms          rms(c)
DAV:   1    -0.624615359790E+02   -0.14061E-05   -0.27783E-04  4480   0.125E-01    0.450E-03
DAV:   2    -0.624615358081E+02    0.17086E-06   -0.46617E-06  5608   0.151E-02    0.277E-03
DAV:   3    -0.624615356216E+02    0.18654E-06   -0.78856E-07  5288   0.600E-03    0.699E-04
DAV:   4    -0.624615356297E+02   -0.81218E-08   -0.10094E-07  5276   0.224E-03    0.452E-04
DAV:   5    -0.624615356358E+02   -0.60836E-08   -0.10328E-08  2892   0.725E-04
  38 F= -.62461536E+02 E0= -.62444529E+02  d E =-.897739E-04
 curvature:  -0.76 expect dE=-0.143E-03 dE for cont linesearch -0.169E-09
 trial: gam= 0.47339 g(F)=  0.119E-03 g(S)=  0.697E-04 ort =-0.633E-06 (trialstep = 0.356E+00)
 search vector abs. value=  0.590E-03
 bond charge predicted
       N       E                     dE             d eps       ncg     rms          rms(c)
DAV:   1    -0.624616030059E+02   -0.67376E-04   -0.55698E-03  4480   0.555E-01    0.252E-02
DAV:   2    -0.624615896615E+02    0.13344E-04   -0.10264E-04  5648   0.704E-02    0.141E-02
DAV:   3    -0.624615827674E+02    0.68941E-05   -0.21588E-05  5364   0.288E-02    0.427E-03
DAV:   4    -0.624615825841E+02    0.18338E-06   -0.20051E-06  5556   0.990E-03    0.210E-03
DAV:   5    -0.624615825607E+02    0.23343E-07   -0.23943E-07  5604   0.329E-03    0.869E-04
DAV:   6    -0.624615825678E+02   -0.70793E-08   -0.41416E-08  4520   0.147E-03
  39 F= -.62461583E+02 E0= -.62444579E+02  d E =-.469320E-04
 trial-energy change:   -0.000047  1 .order   -0.000048   -0.000067   -0.000028
 step:   0.6767(harm=  0.6132)  dis= 0.00123  next Energy=   -62.461595 (dE=-0.591E-04)
 bond charge predicted
       N       E                     dE             d eps       ncg     rms          rms(c)
DAV:   1    -0.624616082147E+02   -0.25654E-04   -0.45413E-03  4480   0.501E-01    0.227E-02
DAV:   2    -0.624615972818E+02    0.10933E-04   -0.83801E-05  5648   0.636E-02    0.127E-02
DAV:   3    -0.624615916351E+02    0.56467E-05   -0.17671E-05  5364   0.260E-02    0.384E-03
DAV:   4    -0.624615914887E+02    0.14640E-06   -0.16414E-06  5548   0.896E-03    0.189E-03
DAV:   5    -0.624615914694E+02    0.19271E-07   -0.19809E-07  5612   0.299E-03    0.787E-04
DAV:   6    -0.624615914753E+02   -0.59090E-08   -0.33687E-08  4220   0.134E-03
  40 F= -.62461591E+02 E0= -.62444590E+02  d E =-.558395E-04
 curvature:  -0.90 expect dE=-0.144E-03 dE for cont linesearch -0.598E-06
 trial: gam= 0.91627 g(F)=  0.114E-03 g(S)=  0.458E-04 ort =-0.198E-04 (trialstep = 0.401E+00)
 search vector abs. value=  0.619E-03
 bond charge predicted
       N       E                     dE             d eps       ncg     rms          rms(c)
DAV:   1    -0.624616621805E+02   -0.70711E-04   -0.68183E-03  4480   0.612E-01    0.305E-02
DAV:   2    -0.624616392607E+02    0.22920E-04   -0.14164E-04  5560   0.821E-02    0.168E-02
DAV:   3    -0.624616300036E+02    0.92571E-05   -0.32126E-05  5360   0.354E-02    0.502E-03
DAV:   4    -0.624616298336E+02    0.17000E-06   -0.27333E-06  5576   0.113E-02    0.241E-03
DAV:   5    -0.624616298531E+02   -0.19433E-07   -0.30700E-07  5480   0.377E-03    0.969E-04
DAV:   6    -0.624616298818E+02   -0.28749E-07   -0.51541E-08  5184   0.167E-03    0.381E-04
DAV:   7    -0.624616298932E+02   -0.11394E-07   -0.10477E-08  3076   0.778E-04    0.127E-04
DAV:   8    -0.624616298950E+02   -0.17935E-08   -0.30272E-09  2708   0.389E-04
  41 F= -.62461630E+02 E0= -.62444608E+02  d E =-.384197E-04
 trial-energy change:   -0.000038  1 .order   -0.000038   -0.000057   -0.000020
 step:   0.6249(harm=  0.6249)  dis= 0.00086  next Energy=   -62.461636 (dE=-0.441E-04)
 bond charge predicted
       N       E                     dE             d eps       ncg     rms          rms(c)
DAV:   1    -0.624616456674E+02   -0.15774E-04   -0.21389E-03  4480   0.343E-01    0.171E-02
DAV:   2    -0.624616384412E+02    0.72261E-05   -0.44385E-05  5560   0.460E-02    0.942E-03
DAV:   3    -0.624616355645E+02    0.28767E-05   -0.10081E-05  5360   0.199E-02    0.281E-03
DAV:   4    -0.624616355306E+02    0.33950E-07   -0.85662E-07  5580   0.634E-03    0.135E-03
DAV:   5    -0.624616355447E+02   -0.14138E-07   -0.96123E-08  5416   0.211E-03    0.541E-04
DAV:   6    -0.624616355577E+02   -0.13018E-07   -0.13664E-08  3200   0.931E-04    0.204E-04
DAV:   7    -0.624616355639E+02   -0.61884E-08   -0.42295E-09  2756   0.485E-04
  42 F= -.62461636E+02 E0= -.62444602E+02  d E =-.440886E-04
 curvature:  -1.37 expect dE=-0.232E-03 dE for cont linesearch -0.950E-10
 trial: gam= 0.85510 g(F)=  0.136E-03 g(S)=  0.335E-04 ort =-0.207E-06 (trialstep = 0.443E+00)
 search vector abs. value=  0.622E-03
 bond charge predicted
       N       E                     dE             d eps       ncg     rms          rms(c)
DAV:   1    -0.624617045114E+02   -0.68954E-04   -0.84241E-03  4480   0.677E-01    0.318E-02
DAV:   2    -0.624616834828E+02    0.21029E-04   -0.17047E-04  5520   0.887E-02    0.181E-02
DAV:   3    -0.624616719201E+02    0.11563E-04   -0.36631E-05  5336   0.370E-02    0.418E-03
DAV:   4    -0.624616720506E+02   -0.13051E-06   -0.26907E-06  5480   0.112E-02    0.261E-03
DAV:   5    -0.624616721167E+02   -0.66108E-07   -0.33173E-07  5848   0.381E-03    0.902E-04
DAV:   6    -0.624616721502E+02   -0.33453E-07   -0.39988E-08  5028   0.144E-03    0.346E-04
DAV:   7    -0.624616721668E+02   -0.16649E-07   -0.97640E-09  3104   0.710E-04    0.121E-04
DAV:   8    -0.624616721693E+02   -0.24534E-08   -0.18882E-09  2656   0.324E-04
  43 F= -.62461672E+02 E0= -.62444657E+02  d E =-.366054E-04
 trial-energy change:   -0.000037  1 .order   -0.000036   -0.000075    0.000003
 step:   0.4289(harm=  0.4285)  dis= 0.00069  next Energy=   -62.461672 (dE=-0.366E-04)
 bond charge predicted
       N       E                     dE             d eps       ncg     rms          rms(c)
DAV:   1    -0.624616722549E+02   -0.88077E-07   -0.89885E-06  4496   0.221E-02    0.104E-03
DAV:   2    -0.624616722301E+02    0.24866E-07   -0.18164E-07  5516   0.290E-03    0.592E-04
DAV:   3    -0.624616722072E+02    0.22862E-07   -0.38222E-08  4700   0.120E-03    0.135E-04
DAV:   4    -0.624616722033E+02    0.38426E-08   -0.30541E-09  2336   0.400E-04
  44 F= -.62461672E+02 E0= -.62444656E+02  d E =-.366394E-04
 curvature:  -0.79 expect dE=-0.575E-04 dE for cont linesearch -0.741E-10
 trial: gam= 0.48672 g(F)=  0.474E-04 g(S)=  0.257E-04 ort =-0.242E-06 (trialstep = 0.440E+00)
 search vector abs. value=  0.220E-03
 bond charge predicted
       N       E                     dE             d eps       ncg     rms          rms(c)
DAV:   1    -0.624617191850E+02   -0.46978E-04   -0.23424E-03  4480   0.350E-01    0.221E-02
DAV:   2    -0.624617042540E+02    0.14931E-04   -0.55418E-05  5376   0.504E-02    0.114E-02
DAV:   3    -0.624616985528E+02    0.57012E-05   -0.16591E-05  5352   0.241E-02    0.303E-03
DAV:   4    -0.624616985099E+02    0.42911E-07   -0.10213E-06  5592   0.692E-03    0.166E-03
DAV:   5    -0.624616985216E+02   -0.11759E-07   -0.11133E-07  5596   0.232E-03    0.626E-04
DAV:   6    -0.624616985347E+02   -0.13062E-07   -0.14545E-08  3196   0.923E-04    0.197E-04
DAV:   7    -0.624616985407E+02   -0.59551E-08   -0.39209E-09  2724   0.461E-04
  45 F= -.62461699E+02 E0= -.62444698E+02  d E =-.263373E-04
 trial-energy change:   -0.000026  1 .order   -0.000027   -0.000032   -0.000021
 step:   1.2741(harm=  1.2741)  dis= 0.00102  next Energy=   -62.461719 (dE=-0.465E-04)
 bond charge predicted
       N       E                     dE             d eps       ncg     rms          rms(c)
DAV:   1    -0.624617913286E+02   -0.92794E-04   -0.83973E-03  4480   0.663E-01    0.419E-02
DAV:   2    -0.624617380898E+02    0.53239E-04   -0.19891E-04  5376   0.954E-02    0.216E-02
DAV:   3    -0.624617176420E+02    0.20448E-04   -0.59560E-05  5352   0.456E-02    0.575E-03
DAV:   4    -0.624617174124E+02    0.22955E-06   -0.36711E-06  5592   0.131E-02    0.315E-03
DAV:   5    -0.624617174290E+02   -0.16528E-07   -0.40057E-07  5608   0.440E-03    0.119E-03
DAV:   6    -0.624617174666E+02   -0.37635E-07   -0.60808E-08  5148   0.175E-03    0.390E-04
DAV:   7    -0.624617174806E+02   -0.14005E-07   -0.83228E-09  3180   0.668E-04    0.151E-04
DAV:   8    -0.624617174835E+02   -0.29572E-08   -0.22811E-09  2708   0.348E-04
  46 F= -.62461717E+02 E0= -.62444747E+02  d E =-.452802E-04
 curvature:  -1.92 expect dE=-0.289E-03 dE for cont linesearch -0.537E-09
 trial: gam= 2.05997 g(F)=  0.111E-03 g(S)=  0.390E-04 ort =-0.248E-06 (trialstep = 0.123E+00)
 search vector abs. value=  0.108E-02
 bond charge predicted
       N       E                     dE             d eps       ncg     rms          rms(c)
DAV:   1    -0.624617427426E+02   -0.25262E-04   -0.87089E-04  4480   0.213E-01    0.139E-02
DAV:   2    -0.624617363337E+02    0.64089E-05   -0.21407E-05  5308   0.313E-02    0.702E-03
DAV:   3    -0.624617342910E+02    0.20427E-05   -0.70387E-06  5416   0.158E-02    0.212E-03
DAV:   4    -0.624617342640E+02    0.27052E-07   -0.48389E-07  5420   0.475E-03    0.108E-03
DAV:   5    -0.624617342691E+02   -0.50982E-08   -0.67935E-08  5396   0.173E-03
  47 F= -.62461734E+02 E0= -.62444759E+02  d E =-.167855E-04
 ZBRENT: can't locate minimum, use default step
 trial-energy change:   -0.000017  1 .order   -0.000017   -0.000018   -0.000015
 step:   0.4934(harm=  0.7380)  dis= 0.00065  next Energy=   -62.461773 (dE=-0.553E-04)
 bond charge predicted
       N       E                     dE             d eps       ncg     rms          rms(c)
DAV:   1    -0.624618415840E+02   -0.10732E-03   -0.78435E-03  4480   0.639E-01    0.417E-02
DAV:   2    -0.624617845842E+02    0.57000E-04   -0.19288E-04  5316   0.939E-02    0.211E-02
DAV:   3    -0.624617659775E+02    0.18607E-04   -0.63267E-05  5412   0.474E-02    0.639E-03
DAV:   4    -0.624617655392E+02    0.43829E-06   -0.43570E-06  5420   0.143E-02    0.326E-03
DAV:   5    -0.624617655147E+02    0.24519E-07   -0.61356E-07  5556   0.519E-03    0.132E-03
DAV:   6    -0.624617655526E+02   -0.37832E-07   -0.98881E-08  5308   0.223E-03    0.541E-04
DAV:   7    -0.624617655719E+02   -0.19330E-07   -0.18355E-08  3424   0.100E-03    0.171E-04
DAV:   8    -0.624617655747E+02   -0.28367E-08   -0.46997E-09  2740   0.475E-04
  48 F= -.62461766E+02 E0= -.62444776E+02  d E =-.480912E-04
 curvature:  -2.24 expect dE=-0.265E-03 dE for cont linesearch -0.456E-05
 ZBRENT: increasing intervall
 opt :   1.2336  next Energy=   -62.461743 (dE=-0.251E-04)
 bond charge predicted
       N       E                     dE             d eps       ncg     rms          rms(c)
DAV:   1    -0.624620484940E+02   -0.28292E-03   -0.31441E-02  4480   0.128E+00    0.837E-02
DAV:   2    -0.624618198126E+02    0.22868E-03   -0.77413E-04  5304   0.188E-01    0.422E-02
DAV:   3    -0.624617448873E+02    0.74925E-04   -0.25436E-04  5404   0.950E-02    0.128E-02
DAV:   4    -0.624617429097E+02    0.19776E-05   -0.17515E-05  5432   0.286E-02    0.653E-03
DAV:   5    -0.624617427173E+02    0.19242E-06   -0.24503E-06  5548   0.104E-02    0.265E-03
DAV:   6    -0.624617428326E+02   -0.11533E-06   -0.39508E-07  5396   0.446E-03    0.109E-03
DAV:   7    -0.624617428924E+02   -0.59826E-07   -0.82247E-08  5368   0.200E-03    0.361E-04
DAV:   8    -0.624617429005E+02   -0.80840E-08   -0.10537E-08  3352   0.783E-04
  49 F= -.62461743E+02 E0= -.62444726E+02  d E =-.254169E-04
 curvature:  11.29 expect dE= 0.807E-02 dE for cont linesearch  0.121E-03
 ZBRENT: bracketing found
 ZBRENT: interpolating
 opt :   0.7181  next Energy=   -62.461771 (dE=-0.534E-04)
 bond charge predicted
       N       E                     dE             d eps       ncg     rms          rms(c)
DAV:   1    -0.624619191635E+02   -0.17627E-03   -0.15254E-02  4480   0.890E-01    0.582E-02
DAV:   2    -0.624618089902E+02    0.11017E-03   -0.37423E-04  5312   0.131E-01    0.295E-02
DAV:   3    -0.624617721726E+02    0.36818E-04   -0.12456E-04  5404   0.664E-02    0.888E-03
DAV:   4    -0.624617709876E+02    0.11850E-05   -0.84987E-06  5428   0.199E-02    0.452E-03
DAV:   5    -0.624617708039E+02    0.18362E-06   -0.11936E-06  5532   0.723E-03    0.183E-03
DAV:   6    -0.624617708241E+02   -0.20188E-07   -0.18864E-07  5404   0.308E-03    0.755E-04
DAV:   7    -0.624617708335E+02   -0.93603E-08   -0.39410E-08  5092   0.139E-03
  50 F= -.62461771E+02 E0= -.62444773E+02  d E =-.533499E-04
 curvature:  -0.49 expect dE=-0.107E-03 dE for cont linesearch -0.172E-09
 trial: gam= 1.43558 g(F)=  0.186E-03 g(S)=  0.313E-04 ort =-0.616E-06 (trialstep = 0.107E+00)
 search vector abs. value=  0.245E-02
 bond charge predicted
       N       E                     dE             d eps       ncg     rms          rms(c)
DAV:   1    -0.624618052348E+02   -0.34411E-04   -0.14032E-03  4480   0.270E-01    0.179E-02
DAV:   2    -0.624617953322E+02    0.99026E-05   -0.34670E-05  5380   0.395E-02    0.896E-03
DAV:   3    -0.624617921160E+02    0.32162E-05   -0.10963E-05  5392   0.196E-02    0.252E-03
DAV:   4    -0.624617920834E+02    0.32597E-07   -0.78405E-07  5488   0.602E-03    0.133E-03
DAV:   5    -0.624617920983E+02   -0.14871E-07   -0.10240E-07  5524   0.213E-03    0.577E-04
DAV:   6    -0.624617921131E+02   -0.14873E-07   -0.14368E-08  3108   0.927E-04    0.221E-04
DAV:   7    -0.624617921206E+02   -0.75111E-08   -0.44488E-09  2592   0.487E-04
  51 F= -.62461792E+02 E0= -.62444801E+02  d E =-.212871E-04
 ZBRENT: can't locate minimum, use default step
 trial-energy change:   -0.000021  1 .order   -0.000022   -0.000023   -0.000020
 step:   0.4289(harm=  0.7684)  dis= 0.00081  next Energy=   -62.461854 (dE=-0.831E-04)
 bond charge predicted
       N       E                     dE             d eps       ncg     rms          rms(c)
DAV:   1    -0.624619575297E+02   -0.16542E-03   -0.12648E-02  4480   0.811E-01    0.538E-02
DAV:   2    -0.624618680476E+02    0.89482E-04   -0.31360E-04  5384   0.119E-01    0.269E-02
DAV:   3    -0.624618382981E+02    0.29750E-04   -0.99165E-05  5400   0.590E-02    0.757E-03
DAV:   4    -0.624618376983E+02    0.59973E-06   -0.71013E-06  5480   0.181E-02    0.400E-03
DAV:   5    -0.624618376828E+02    0.15516E-07   -0.93200E-07  5560   0.643E-03    0.174E-03
DAV:   6    -0.624618377554E+02   -0.72597E-07   -0.15759E-07  5848   0.282E-03    0.689E-04
DAV:   7    -0.624618377880E+02   -0.32580E-07   -0.28943E-08  3984   0.123E-03    0.224E-04
DAV:   8    -0.624618377931E+02   -0.50675E-08   -0.53534E-09  3012   0.534E-04
  52 F= -.62461838E+02 E0= -.62444866E+02  d E =-.669596E-04
 curvature:  -3.20 expect dE=-0.336E-03 dE for cont linesearch -0.119E-04
 ZBRENT: increasing intervall
 opt :   1.0723  next Energy=   -62.461841 (dE=-0.700E-04)
 bond charge predicted
       N       E                     dE             d eps       ncg     rms          rms(c)
DAV:   1    -0.624623237682E+02   -0.48598E-03   -0.50746E-02  4480   0.162E+00    0.108E-01
DAV:   2    -0.624619637745E+02    0.35999E-03   -0.12610E-03  5384   0.238E-01    0.539E-02
DAV:   3    -0.624618435227E+02    0.12025E-03   -0.39768E-04  5400   0.118E-01    0.152E-02
DAV:   4    -0.624618407680E+02    0.27547E-05   -0.28552E-05  5480   0.363E-02    0.803E-03
DAV:   5    -0.624618405408E+02    0.22718E-06   -0.37346E-06  5572   0.129E-02    0.350E-03
DAV:   6    -0.624618407600E+02   -0.21917E-06   -0.63392E-07  5840   0.567E-03    0.138E-03
DAV:   7    -0.624618408642E+02   -0.10419E-06   -0.12503E-07  5476   0.247E-03    0.462E-04
DAV:   8    -0.624618408804E+02   -0.16232E-07   -0.18020E-08  3896   0.969E-04    0.155E-04
DAV:   9    -0.624618408836E+02   -0.31653E-08   -0.43550E-09  2908   0.472E-04
  53 F= -.62461841E+02 E0= -.62444907E+02  d E =-.700501E-04
 curvature:  -0.82 expect dE=-0.351E-03 dE for cont linesearch -0.248E-05
 ZBRENT: bracketing found
 ZBRENT: interpolating
 opt :   0.7668  next Energy=   -62.461854 (dE=-0.832E-04)
 bond charge predicted
       N       E                     dE             d eps       ncg     rms          rms(c)
DAV:   1    -0.624619640945E+02   -0.12321E-03   -0.11449E-02  4480   0.770E-01    0.512E-02
DAV:   2    -0.624618830447E+02    0.81050E-04   -0.28341E-04  5384   0.113E-01    0.256E-02
DAV:   3    -0.624618552574E+02    0.27787E-04   -0.90723E-05  5384   0.564E-02    0.720E-03
DAV:   4    -0.624618544207E+02    0.83673E-06   -0.64219E-06  5472   0.173E-02    0.380E-03
DAV:   5    -0.624618542555E+02    0.16523E-06   -0.84709E-07  5556   0.613E-03    0.165E-03
DAV:   6    -0.624618542556E+02   -0.15370E-09   -0.14156E-07  5836   0.268E-03    0.657E-04
DAV:   7    -0.624618542598E+02   -0.41969E-08   -0.25732E-08  3788   0.117E-03
  54 F= -.62461854E+02 E0= -.62444902E+02  d E =-.834263E-04
 curvature:  -4.33 expect dE=-0.875E-03 dE for cont linesearch -0.122E-13
 trial: gam= 0.93404 g(F)=  0.162E-03 g(S)=  0.399E-04 ort =-0.262E-08 (trialstep = 0.239E+00)
 search vector abs. value=  0.234E-02
 bond charge predicted
       N       E                     dE             d eps       ncg     rms          rms(c)
DAV:   1    -0.624619591949E+02   -0.10494E-03   -0.62159E-03  4480   0.562E-01    0.388E-02
DAV:   2    -0.624619125458E+02    0.46649E-04   -0.16183E-04  5404   0.857E-02    0.195E-02
DAV:   3    -0.624618966097E+02    0.15936E-04   -0.51487E-05  5272   0.423E-02    0.557E-03
DAV:   4    -0.624618963193E+02    0.29046E-06   -0.33618E-06  5612   0.126E-02    0.293E-03
DAV:   5    -0.624618963101E+02    0.92268E-08   -0.42512E-07  5444   0.449E-03    0.131E-03
DAV:   6    -0.624618963470E+02   -0.36990E-07   -0.74321E-08  5324   0.196E-03    0.452E-04
DAV:   7    -0.624618963616E+02   -0.14529E-07   -0.12942E-08  3144   0.831E-04    0.158E-04
DAV:   8    -0.624618963643E+02   -0.27753E-08   -0.29156E-09  2644   0.385E-04
  55 F= -.62461896E+02 E0= -.62444962E+02  d E =-.421045E-04
 ZBRENT: can't locate minimum, use default step
 trial-energy change:   -0.000042  1 .order   -0.000043   -0.000048   -0.000037
 step:   0.9566(harm=  1.0481)  dis= 0.00137  next Energy=   -62.461960 (dE=-0.106E-03)
 bond charge predicted
       N       E                     dE             d eps       ncg     rms          rms(c)
DAV:   1    -0.624625260330E+02   -0.62967E-03   -0.56148E-02  4480   0.169E+00    0.117E-01
DAV:   2    -0.624621044127E+02    0.42162E-03   -0.14665E-03  5388   0.258E-01    0.588E-02
DAV:   3    -0.624619598211E+02    0.14459E-03   -0.46582E-04  5264   0.127E-01    0.168E-02
DAV:   4    -0.624619566615E+02    0.31596E-05   -0.30570E-05  5612   0.378E-02    0.882E-03
DAV:   5    -0.624619564308E+02    0.23065E-06   -0.38645E-06  5440   0.135E-02    0.397E-03
DAV:   6    -0.624619566929E+02   -0.26204E-06   -0.68987E-07  5848   0.596E-03    0.137E-03
DAV:   7    -0.624619567884E+02   -0.95491E-07   -0.13678E-07  5748   0.254E-03    0.511E-04
DAV:   8    -0.624619568057E+02   -0.17307E-07   -0.20649E-08  3804   0.105E-03    0.194E-04
DAV:   9    -0.624619568107E+02   -0.50679E-08   -0.60576E-09  2968   0.555E-04
  56 F= -.62461957E+02 E0= -.62445077E+02  d E =-.102551E-03
 curvature:  -5.99 expect dE=-0.191E-02 dE for cont linesearch -0.689E-06
 trial: gam= 1.49798 g(F)=  0.301E-03 g(S)=  0.173E-04 ort = 0.164E-04 (trialstep = 0.159E+00)
 search vector abs. value=  0.561E-02
 bond charge predicted
       N       E                     dE             d eps       ncg     rms          rms(c)
DAV:   1    -0.624620678127E+02   -0.11101E-03   -0.67219E-03  4480   0.586E-01    0.394E-02
DAV:   2    -0.624620206763E+02    0.47136E-04   -0.17795E-04  5396   0.898E-02    0.199E-02
DAV:   3    -0.624620049821E+02    0.15694E-04   -0.50387E-05  5280   0.427E-02    0.602E-03
DAV:   4    -0.624620045753E+02    0.40682E-06   -0.36578E-06  5472   0.128E-02    0.317E-03
DAV:   5    -0.624620045561E+02    0.19185E-07   -0.50561E-07  5804   0.465E-03    0.125E-03
DAV:   6    -0.624620045851E+02   -0.28972E-07   -0.71085E-08  5180   0.187E-03    0.493E-04
DAV:   7    -0.624620046006E+02   -0.15548E-07   -0.12149E-08  3208   0.807E-04    0.150E-04
DAV:   8    -0.624620046035E+02   -0.28961E-08   -0.29661E-09  2616   0.385E-04
  57 F= -.62462005E+02 E0= -.62445109E+02  d E =-.477928E-04
 ZBRENT: can't locate minimum, use default step
 trial-energy change:   -0.000048  1 .order   -0.000048   -0.000055   -0.000041
 step:   0.6374(harm=  0.6450)  dis= 0.00193  next Energy=   -62.462067 (dE=-0.111E-03)
 bond charge predicted
       N       E                     dE             d eps       ncg     rms          rms(c)
DAV:   1    -0.624626363623E+02   -0.63176E-03   -0.60671E-02  4480   0.176E+00    0.119E-01
DAV:   2    -0.624622115618E+02    0.42480E-03   -0.16104E-03  5392   0.270E-01    0.599E-02
DAV:   3    -0.624620695180E+02    0.14204E-03   -0.45432E-04  5280   0.128E-01    0.181E-02
DAV:   4    -0.624620654136E+02    0.41044E-05   -0.33172E-05  5480   0.386E-02    0.957E-03
DAV:   5    -0.624620651062E+02    0.30741E-06   -0.45502E-06  5796   0.140E-02    0.378E-03
DAV:   6    -0.624620653173E+02   -0.21110E-06   -0.64623E-07  5492   0.564E-03    0.148E-03
DAV:   7    -0.624620654229E+02   -0.10562E-06   -0.12365E-07  5496   0.242E-03    0.482E-04
DAV:   8    -0.624620654397E+02   -0.16856E-07   -0.16522E-08  3716   0.958E-04    0.169E-04
DAV:   9    -0.624620654436E+02   -0.38324E-08   -0.48305E-09  2896   0.488E-04
  58 F= -.62462065E+02 E0= -.62445123E+02  d E =-.108633E-03
 curvature:  -5.28 expect dE=-0.170E-02 dE for cont linesearch -0.986E-09
 trial: gam= 1.15951 g(F)=  0.257E-03 g(S)=  0.647E-04 ort = 0.102E-05 (trialstep = 0.182E+00)
 search vector abs. value=  0.787E-02
 bond charge predicted
       N       E                     dE             d eps       ncg     rms          rms(c)
DAV:   1    -0.624622146030E+02   -0.14916E-03   -0.11629E-02  4480   0.774E-01    0.508E-02
DAV:   2    -0.624621424245E+02    0.72179E-04   -0.29288E-04  5428   0.115E-01    0.257E-02
DAV:   3    -0.624621177363E+02    0.24688E-04   -0.77251E-05  5252   0.526E-02    0.726E-03
DAV:   4    -0.624621172180E+02    0.51826E-06   -0.57704E-06  5484   0.161E-02    0.395E-03
DAV:   5    -0.624621172475E+02   -0.29517E-07   -0.80965E-07  5928   0.584E-03    0.154E-03
DAV:   6    -0.624621173056E+02   -0.58068E-07   -0.10746E-07  5420   0.229E-03    0.615E-04
DAV:   7    -0.624621173330E+02   -0.27413E-07   -0.18884E-08  3540   0.100E-03    0.189E-04
DAV:   8    -0.624621173378E+02   -0.48262E-08   -0.37718E-09  2788   0.453E-04
  59 F= -.62462117E+02 E0= -.62445186E+02  d E =-.518943E-04
 ZBRENT: can't locate minimum, use default step
 trial-energy change:   -0.000052  1 .order   -0.000052   -0.000059   -0.000045
 step:   0.7274(harm=  0.8082)  dis= 0.00201  next Energy=   -62.462196 (dE=-0.130E-03)
 bond charge predicted
       N       E                     dE             d eps       ncg     rms          rms(c)
DAV:   1    -0.624630799902E+02   -0.96266E-03   -0.10511E-01  4480   0.233E+00    0.153E-01
DAV:   2    -0.624624238652E+02    0.65612E-03   -0.26600E-03  5404   0.345E-01    0.773E-02
DAV:   3    -0.624621987865E+02    0.22508E-03   -0.69803E-04  5256   0.158E-01    0.219E-02
DAV:   4    -0.624621931917E+02    0.55948E-05   -0.52713E-05  5492   0.485E-02    0.119E-02
DAV:   5    -0.624621930421E+02    0.14958E-06   -0.73006E-06  5924   0.176E-02    0.465E-03
DAV:   6    -0.624621934197E+02   -0.37757E-06   -0.97703E-07  5592   0.691E-03    0.185E-03
DAV:   7    -0.624621936003E+02   -0.18061E-06   -0.18695E-07  5272   0.302E-03    0.595E-04
DAV:   8    -0.624621936300E+02   -0.29684E-07   -0.26516E-08  4492   0.115E-03    0.197E-04
DAV:   9    -0.624621936347E+02   -0.47773E-08   -0.59067E-09  3004   0.549E-04
  60 F= -.62462194E+02 E0= -.62445296E+02  d E =-.128191E-03
 curvature:  -9.70 expect dE=-0.267E-02 dE for cont linesearch -0.130E-05
 trial: gam= 0.65494 g(F)=  0.239E-03 g(S)=  0.362E-04 ort = 0.325E-04 (trialstep = 0.291E+00)
 search vector abs. value=  0.369E-02
 bond charge predicted
       N       E                     dE             d eps       ncg     rms          rms(c)
DAV:   1    -0.624623508910E+02   -0.15726E-03   -0.13789E-02  4480   0.854E-01    0.525E-02
DAV:   2    -0.624622856777E+02    0.65213E-04   -0.35833E-04  5484   0.130E-01    0.276E-02
DAV:   3    -0.624622591726E+02    0.26505E-04   -0.88248E-05  5308   0.566E-02    0.762E-03
DAV:   4    -0.624622588513E+02    0.32130E-06   -0.65620E-06  5552   0.179E-02    0.419E-03
DAV:   5    -0.624622589162E+02   -0.64938E-07   -0.81902E-07  5616   0.623E-03    0.181E-03
DAV:   6    -0.624622589877E+02   -0.71479E-07   -0.13877E-07  5988   0.261E-03    0.629E-04
DAV:   7    -0.624622590103E+02   -0.22594E-07   -0.22487E-08  3568   0.112E-03    0.224E-04
DAV:   8    -0.624622590147E+02   -0.43865E-08   -0.57655E-09  2752   0.530E-04
  61 F= -.62462259E+02 E0= -.62445403E+02  d E =-.653800E-04
 trial-energy change:   -0.000065  1 .order   -0.000066   -0.000086   -0.000045
 step:   0.6577(harm=  0.6138)  dis= 0.00152  next Energy=   -62.462287 (dE=-0.932E-04)
 bond charge predicted
       N       E                     dE             d eps       ncg     rms          rms(c)
DAV:   1    -0.624624296918E+02   -0.17068E-03   -0.21949E-02  4480   0.108E+00    0.664E-02
DAV:   2    -0.624623252702E+02    0.10442E-03   -0.57074E-04  5488   0.164E-01    0.348E-02
DAV:   3    -0.624622828599E+02    0.42410E-04   -0.14097E-04  5308   0.715E-02    0.962E-03
DAV:   4    -0.624622823014E+02    0.55845E-06   -0.10463E-05  5536   0.226E-02    0.530E-03
DAV:   5    -0.624622823873E+02   -0.85915E-07   -0.13093E-06  5616   0.787E-03    0.229E-03
DAV:   6    -0.624622824939E+02   -0.10656E-06   -0.22208E-07  5988   0.330E-03    0.797E-04
DAV:   7    -0.624622825274E+02   -0.33468E-07   -0.38840E-08  4928   0.142E-03    0.291E-04
DAV:   8    -0.624622825332E+02   -0.58733E-08   -0.73703E-09  2952   0.618E-04
  62 F= -.62462283E+02 E0= -.62445480E+02  d E =-.888985E-04
 curvature:  -3.76 expect dE=-0.126E-02 dE for cont linesearch -0.469E-06
 trial: gam= 1.42019 g(F)=  0.294E-03 g(S)=  0.410E-04 ort =-0.215E-04 (trialstep = 0.174E+00)
 search vector abs. value=  0.772E-02
 bond charge predicted
       N       E                     dE             d eps       ncg     rms          rms(c)
DAV:   1    -0.624623902802E+02   -0.10775E-03   -0.98351E-03  4480   0.722E-01    0.441E-02
DAV:   2    -0.624623460918E+02    0.44188E-04   -0.24661E-04  5500   0.107E-01    0.231E-02
DAV:   3    -0.624623290632E+02    0.17029E-04   -0.53732E-05  5380   0.452E-02    0.697E-03
DAV:   4    -0.624623286562E+02    0.40697E-06   -0.45841E-06  5508   0.145E-02    0.374E-03
DAV:   5    -0.624623287134E+02   -0.57167E-07   -0.62917E-07  5968   0.528E-03    0.148E-03
DAV:   6    -0.624623287590E+02   -0.45639E-07   -0.92729E-08  5496   0.212E-03    0.550E-04
DAV:   7    -0.624623287768E+02   -0.17711E-07   -0.16562E-08  3228   0.944E-04    0.166E-04
DAV:   8    -0.624623287799E+02   -0.31077E-08   -0.34975E-09  2572   0.417E-04
  63 F= -.62462329E+02 E0= -.62445526E+02  d E =-.462466E-04
 trial-energy change:   -0.000046  1 .order   -0.000046   -0.000053   -0.000039
 step:   0.5135(harm=  0.6490)  dis= 0.00197  next Energy=   -62.462369 (dE=-0.864E-04)
 bond charge predicted
       N       E                     dE             d eps       ncg     rms          rms(c)
DAV:   1    -0.624626118719E+02   -0.28310E-03   -0.37399E-02  4480   0.141E+00    0.861E-02
DAV:   2    -0.624624432076E+02    0.16866E-03   -0.93932E-04  5484   0.209E-01    0.450E-02
DAV:   3    -0.624623779961E+02    0.65212E-04   -0.20513E-04  5380   0.883E-02    0.136E-02
DAV:   4    -0.624623762667E+02    0.17294E-05   -0.17511E-05  5516   0.284E-02    0.732E-03
DAV:   5    -0.624623764046E+02   -0.13795E-06   -0.23920E-06  5964   0.103E-02    0.289E-03
DAV:   6    -0.624623765521E+02   -0.14750E-06   -0.35450E-07  5780   0.414E-03    0.107E-03
DAV:   7    -0.624623766067E+02   -0.54572E-07   -0.69368E-08  5236   0.183E-03    0.342E-04
DAV:   8    -0.624623766153E+02   -0.86031E-08   -0.89801E-09  3208   0.705E-04
  64 F= -.62462377E+02 E0= -.62445575E+02  d E =-.940821E-04
 curvature:  -7.56 expect dE=-0.201E-02 dE for cont linesearch -0.390E-05
 ZBRENT: extrapolating
 opt :   0.6477  next Energy=   -62.462381 (dE=-0.983E-04)
 bond charge predicted
       N       E                     dE             d eps       ncg     rms          rms(c)
DAV:   1    -0.624624176750E+02   -0.41068E-04   -0.58577E-03  4480   0.557E-01    0.341E-02
DAV:   2    -0.624623908450E+02    0.26830E-04   -0.14708E-04  5484   0.827E-02    0.178E-02
DAV:   3    -0.624623806079E+02    0.10237E-04   -0.32408E-05  5380   0.351E-02    0.538E-03
DAV:   4    -0.624623803801E+02    0.22781E-06   -0.27446E-06  5516   0.113E-02    0.290E-03
DAV:   5    -0.624623804211E+02   -0.40939E-07   -0.37670E-07  5976   0.409E-03    0.115E-03
DAV:   6    -0.624623804507E+02   -0.29675E-07   -0.55244E-08  5128   0.164E-03    0.425E-04
DAV:   7    -0.624623804628E+02   -0.12074E-07   -0.10032E-08  2972   0.733E-04    0.127E-04
DAV:   8    -0.624623804649E+02   -0.20459E-08   -0.21128E-09  2524   0.322E-04
  65 F= -.62462380E+02 E0= -.62445579E+02  d E =-.979316E-04
 curvature:  -8.21 expect dE=-0.279E-02 dE for cont linesearch -0.626E-09
 trial: gam= 0.66812 g(F)=  0.306E-03 g(S)=  0.338E-04 ort =-0.767E-06 (trialstep = 0.269E+00)
 search vector abs. value=  0.379E-02
 bond charge predicted
       N       E                     dE             d eps       ncg     rms          rms(c)
DAV:   1    -0.624624872338E+02   -0.10677E-03   -0.12372E-02  4480   0.828E-01    0.423E-02
DAV:   2    -0.624624611391E+02    0.26095E-04   -0.28873E-04  5760   0.116E-01    0.231E-02
DAV:   3    -0.624624479119E+02    0.13227E-04   -0.37843E-05  5584   0.405E-02    0.781E-03
DAV:   4    -0.624624472740E+02    0.63787E-06   -0.54373E-06  5360   0.154E-02    0.352E-03
DAV:   5    -0.624624473755E+02   -0.10147E-06   -0.74990E-07  5960   0.555E-03    0.149E-03
DAV:   6    -0.624624474233E+02   -0.47849E-07   -0.88004E-08  5320   0.211E-03    0.607E-04
DAV:   7    -0.624624474455E+02   -0.22249E-07   -0.18189E-08  3216   0.100E-03    0.163E-04
DAV:   8    -0.624624474483E+02   -0.27253E-08   -0.33352E-09  2572   0.424E-04
  66 F= -.62462447E+02 E0= -.62445640E+02  d E =-.669834E-04
 trial-energy change:   -0.000067  1 .order   -0.000067   -0.000091   -0.000042
 step:   0.4767(harm=  0.4955)  dis= 0.00108  next Energy=   -62.462464 (dE=-0.833E-04)
 bond charge predicted
       N       E                     dE             d eps       ncg     rms          rms(c)
DAV:   1    -0.624624889666E+02   -0.41521E-04   -0.73979E-03  4480   0.640E-01    0.327E-02
DAV:   2    -0.624624732110E+02    0.15756E-04   -0.17266E-04  5764   0.900E-02    0.179E-02
DAV:   3    -0.624624653005E+02    0.79104E-05   -0.22739E-05  5572   0.314E-02    0.604E-03
DAV:   4    -0.624624649394E+02    0.36116E-06   -0.32544E-06  5360   0.119E-02    0.273E-03
DAV:   5    -0.624624650110E+02   -0.71581E-07   -0.44934E-07  5960   0.430E-03    0.115E-03
DAV:   6    -0.624624650435E+02   -0.32526E-07   -0.52755E-08  5276   0.163E-03    0.470E-04
DAV:   7    -0.624624650582E+02   -0.14723E-07   -0.10876E-08  2988   0.779E-04    0.126E-04
DAV:   8    -0.624624650600E+02   -0.18276E-08   -0.20522E-09  2484   0.332E-04
  67 F= -.62462465E+02 E0= -.62445652E+02  d E =-.845952E-04
 curvature:  -2.74 expect dE=-0.485E-03 dE for cont linesearch -0.123E-06
 trial: gam= 0.50910 g(F)=  0.128E-03 g(S)=  0.488E-04 ort = 0.130E-04 (trialstep = 0.310E+00)
 search vector abs. value=  0.117E-02
 bond charge predicted
       N       E                     dE             d eps       ncg     rms          rms(c)
DAV:   1    -0.624625117210E+02   -0.46663E-04   -0.52198E-03  4480   0.545E-01    0.233E-02
DAV:   2    -0.624625113910E+02    0.32994E-06   -0.10853E-04  6020   0.726E-02    0.134E-02
DAV:   3    -0.624625077191E+02    0.36719E-05   -0.91822E-06  5468   0.213E-02    0.337E-03
DAV:   4    -0.624625077355E+02   -0.16375E-07   -0.11829E-06  5672   0.746E-03    0.162E-03
DAV:   5    -0.624625077641E+02   -0.28660E-07   -0.11320E-07  5464   0.235E-03    0.707E-04
DAV:   6    -0.624625077752E+02   -0.11093E-07   -0.14467E-08  3200   0.891E-04    0.216E-04
DAV:   7    -0.624625077776E+02   -0.23338E-08   -0.49748E-09  2760   0.472E-04
  68 F= -.62462508E+02 E0= -.62445717E+02  d E =-.427175E-04
 trial-energy change:   -0.000043  1 .order   -0.000042   -0.000057   -0.000028
 step:   0.5867(harm=  0.6126)  dis= 0.00128  next Energy=   -62.462520 (dE=-0.554E-04)
 bond charge predicted
       N       E                     dE             d eps       ncg     rms          rms(c)
DAV:   1    -0.624625243543E+02   -0.16579E-04   -0.41324E-03  4480   0.485E-01    0.207E-02
DAV:   2    -0.624625240645E+02    0.28982E-06   -0.85962E-05  6032   0.646E-02    0.119E-02
[...]
DAV:   5    -0.624656627936E+02   -0.22746E-08   -0.20750E-08  3352   0.107E-03
 179 F= -.62465663E+02 E0= -.62448998E+02  d E =-.378636E-05
 curvature:  -3.83 expect dE=-0.278E-04 dE for cont linesearch -0.148E-09
 trial: gam= 0.32523 g(F)=  0.577E-05 g(S)=  0.149E-05 ort = 0.898E-07 (trialstep = 0.348E+00)
 search vector abs. value=  0.294E-04
 bond charge predicted
       N       E                     dE             d eps       ncg     rms          rms(c)
DAV:   1    -0.624656656707E+02   -0.28795E-05   -0.16719E-04  4480   0.929E-02    0.558E-03
DAV:   2    -0.624656649084E+02    0.76239E-06   -0.46787E-06  5424   0.149E-02    0.293E-03
DAV:   3    -0.624656646169E+02    0.29144E-06   -0.82587E-07  5416   0.574E-03    0.986E-04
DAV:   4    -0.624656646114E+02    0.55479E-08   -0.84132E-08  5372   0.203E-03
 180 F= -.62465665E+02 E0= -.62449001E+02  d E =-.181780E-05
 trial-energy change:   -0.000002  1 .order   -0.000002   -0.000003   -0.000001
 step:   0.7489(harm=  0.7489)  dis= 0.00015  next Energy=   -62.465666 (dE=-0.273E-05)
 bond charge predicted
       N       E                     dE             d eps       ncg     rms          rms(c)
DAV:   1    -0.624656665561E+02   -0.19392E-05   -0.22123E-04  4480   0.107E-01    0.646E-03
DAV:   2    -0.624656655588E+02    0.99725E-06   -0.61885E-06  5424   0.171E-02    0.341E-03
DAV:   3    -0.624656651759E+02    0.38289E-06   -0.11064E-06  5432   0.664E-03    0.116E-03
DAV:   4    -0.624656651678E+02    0.80975E-08   -0.11368E-07  5588   0.236E-03    0.599E-04
DAV:   5    -0.624656651689E+02   -0.10643E-08   -0.12596E-08  3112   0.831E-04
 181 F= -.62465665E+02 E0= -.62449003E+02  d E =-.237533E-05
 curvature:  -1.51 expect dE=-0.136E-04 dE for cont linesearch -0.676E-08
 trial: gam= 1.29076 g(F)=  0.734E-05 g(S)=  0.165E-05 ort =-0.363E-06 (trialstep = 0.221E+00)
 search vector abs. value=  0.570E-04
 bond charge predicted
       N       E                     dE             d eps       ncg     rms          rms(c)
DAV:   1    -0.624656673968E+02   -0.22290E-05   -0.11680E-04  4480   0.778E-02    0.491E-03
DAV:   2    -0.624656668624E+02    0.53448E-06   -0.32798E-06  5428   0.121E-02    0.252E-03
DAV:   3    -0.624656666906E+02    0.17173E-06   -0.48803E-07  5548   0.442E-03    0.851E-04
DAV:   4    -0.624656666963E+02   -0.56452E-08   -0.71968E-08  5356   0.171E-03
 182 F= -.62465667E+02 E0= -.62449005E+02  d E =-.152738E-05
 trial-energy change:   -0.000002  1 .order   -0.000002   -0.000002   -0.000001
 step:   0.5751(harm=  0.5751)  dis= 0.00020  next Energy=   -62.465668 (dE=-0.245E-05)
 bond charge predicted
       N       E                     dE             d eps       ncg     rms          rms(c)
DAV:   1    -0.624656694910E+02   -0.28004E-05   -0.30134E-04  4480   0.125E-01    0.792E-03
DAV:   2    -0.624656681290E+02    0.13620E-05   -0.84217E-06  5432   0.193E-02    0.409E-03
DAV:   3    -0.624656676643E+02    0.46473E-06   -0.12770E-06  5540   0.714E-03    0.137E-03
DAV:   4    -0.624656676661E+02   -0.18065E-08   -0.18397E-07  5476   0.273E-03    0.630E-04
DAV:   5    -0.624656676826E+02   -0.16487E-07   -0.17207E-08  3152   0.952E-04    0.206E-04
DAV:   6    -0.624656676886E+02   -0.59881E-08   -0.42079E-09  2600   0.481E-04
 183 F= -.62465668E+02 E0= -.62449005E+02  d E =-.251967E-05
 curvature:  -1.93 expect dE=-0.133E-04 dE for cont linesearch -0.593E-09
 trial: gam= 0.64659 g(F)=  0.582E-05 g(S)=  0.107E-05 ort = 0.133E-06 (trialstep = 0.292E+00)
 search vector abs. value=  0.309E-04
 bond charge predicted
       N       E                     dE             d eps       ncg     rms          rms(c)
DAV:   1    -0.624656696821E+02   -0.19995E-05   -0.11880E-04  4480   0.797E-02    0.428E-03
DAV:   2    -0.624656693833E+02    0.29876E-06   -0.23221E-06  5440   0.108E-02    0.240E-03
DAV:   3    -0.624656692944E+02    0.88951E-07   -0.65051E-07  5332   0.483E-03    0.608E-04
DAV:   4    -0.624656693043E+02   -0.99333E-08   -0.45080E-08  5096   0.140E-03
 184 F= -.62465669E+02 E0= -.62449004E+02  d E =-.161574E-05
 trial-energy change:   -0.000002  1 .order   -0.000002   -0.000002   -0.000001
 step:   0.4646(harm=  0.5966)  dis= 0.00013  next Energy=   -62.465670 (dE=-0.194E-05)
 bond charge predicted
       N       E                     dE             d eps       ncg     rms          rms(c)
DAV:   1    -0.624656701572E+02   -0.86287E-06   -0.41667E-05  4480   0.472E-02    0.255E-03
DAV:   2    -0.624656700630E+02    0.94222E-07   -0.82005E-07  5456   0.642E-03    0.143E-03
DAV:   3    -0.624656700520E+02    0.11054E-07   -0.23358E-07  5340   0.289E-03    0.376E-04
DAV:   4    -0.624656700587E+02   -0.67787E-08   -0.14720E-08  2964   0.845E-04
 185 F= -.62465670E+02 E0= -.62449003E+02  d E =-.237018E-05
 curvature:  -1.07 expect dE=-0.269E-05 dE for cont linesearch -0.703E-07
 trial: gam= 0.20405 g(F)=  0.149E-05 g(S)=  0.102E-05 ort = 0.142E-05 (trialstep = 0.326E+00)
 search vector abs. value=  0.437E-05
 bond charge predicted
       N       E                     dE             d eps       ncg     rms          rms(c)
DAV:   1    -0.624656708057E+02   -0.75373E-06   -0.28706E-05  4480   0.410E-02    0.182E-03
DAV:   2    -0.624656707480E+02    0.57718E-07   -0.62570E-07  5640   0.562E-03    0.105E-03
DAV:   3    -0.624656706933E+02    0.54629E-07   -0.86696E-08  5360   0.203E-03    0.301E-04
DAV:   4    -0.624656706892E+02    0.41600E-08   -0.98356E-09  2788   0.754E-04
 186 F= -.62465671E+02 E0= -.62449003E+02  d E =-.630441E-06
 trial-energy change:   -0.000001  1 .order   -0.000001   -0.000001   -0.000000
 step:   0.6293(harm=  0.6293)  dis= 0.00010  next Energy=   -62.465671 (dE=-0.880E-06)
 bond charge predicted
       N       E                     dE             d eps       ncg     rms          rms(c)
DAV:   1    -0.624656709551E+02   -0.26177E-06   -0.24896E-05  4480   0.382E-02    0.169E-03
DAV:   2    -0.624656709022E+02    0.52904E-07   -0.54677E-07  5636   0.527E-03    0.975E-04
DAV:   3    -0.624656708520E+02    0.50204E-07   -0.76299E-08  5352   0.191E-03    0.286E-04
DAV:   4    -0.624656708479E+02    0.41332E-08   -0.88167E-09  2760   0.716E-04
 187 F= -.62465671E+02 E0= -.62449002E+02  d E =-.789126E-06
 curvature:  -0.49 expect dE=-0.842E-06 dE for cont linesearch -0.952E-10
 trial: gam= 0.81526 g(F)=  0.158E-05 g(S)=  0.130E-06 ort = 0.291E-07 (trialstep = 0.363E+00)
 search vector abs. value=  0.466E-05
 bond charge predicted
       N       E                     dE             d eps       ncg     rms          rms(c)
DAV:   1    -0.624656713692E+02   -0.51717E-06   -0.39151E-05  4480   0.470E-02    0.232E-03
DAV:   2    -0.624656712562E+02    0.11300E-06   -0.95558E-07  5640   0.666E-03    0.128E-03
DAV:   3    -0.624656711903E+02    0.65899E-07   -0.12688E-07  5928   0.250E-03    0.540E-04
DAV:   4    -0.624656711742E+02    0.16093E-07   -0.29925E-08  4120   0.114E-03    0.220E-04
DAV:   5    -0.624656711730E+02    0.11980E-08   -0.38367E-09  2480   0.423E-04
 188 F= -.62465671E+02 E0= -.62448996E+02  d E =-.325112E-06
 trial-energy change:   -0.000000  1 .order   -0.000000   -0.000001   -0.000000
 step:   0.4798(harm=  0.4798)  dis= 0.00005  next Energy=   -62.465671 (dE=-0.416E-06)
 bond charge predicted
       N       E                     dE             d eps       ncg     rms          rms(c)
DAV:   1    -0.624656712116E+02   -0.37372E-07   -0.40894E-06  4480   0.152E-02    0.748E-04
DAV:   2    -0.624656711920E+02    0.19550E-07   -0.98911E-08  5508   0.215E-03    0.411E-04
DAV:   3    -0.624656711811E+02    0.10917E-07   -0.11594E-08  2752   0.808E-04    0.172E-04
DAV:   4    -0.624656711780E+02    0.30630E-08   -0.45478E-09  2368   0.471E-04
 189 F= -.62465671E+02 E0= -.62448994E+02  d E =-.330152E-06
 curvature:  -0.65 expect dE=-0.738E-06 dE for cont linesearch -0.505E-12
 trial: gam= 0.60358 g(F)=  0.673E-06 g(S)=  0.471E-06 ort = 0.191E-08 (trialstep = 0.386E+00)
 search vector abs. value=  0.285E-05
 bond charge predicted
       N       E                     dE             d eps       ncg     rms          rms(c)
DAV:   1    -0.624656716094E+02   -0.42832E-06   -0.25543E-05  4480   0.379E-02    0.177E-03
DAV:   2    -0.624656715657E+02    0.43754E-07   -0.48734E-07  5764   0.471E-03    0.975E-04
DAV:   3    -0.624656715617E+02    0.39722E-08   -0.64571E-08  5436   0.168E-03
 190 F= -.62465672E+02 E0= -.62448990E+02  d E =-.383654E-06
 trial-energy change:   -0.000000  1 .order   -0.000000   -0.000000   -0.000000
 step:   1.3480(harm=  1.3480)  dis= 0.00013  next Energy=   -62.465672 (dE=-0.772E-06)
 bond charge predicted
       N       E                     dE             d eps       ncg     rms          rms(c)
DAV:   1    -0.624656722370E+02   -0.67137E-06   -0.15777E-04  4480   0.943E-02    0.445E-03
DAV:   2    -0.624656719265E+02    0.31051E-06   -0.30098E-06  5744   0.117E-02    0.245E-03
DAV:   3    -0.624656718314E+02    0.95086E-07   -0.40170E-07  5612   0.419E-03    0.935E-04
DAV:   4    -0.624656718458E+02   -0.14397E-07   -0.84192E-08  5352   0.184E-03    0.352E-04
DAV:   5    -0.624656718594E+02   -0.13592E-07   -0.70863E-09  2728   0.600E-04    0.152E-04
DAV:   6    -0.624656718673E+02   -0.78505E-08   -0.17396E-09  2468   0.313E-04
 191 F= -.62465672E+02 E0= -.62448981E+02  d E =-.689234E-06
 curvature:  -1.68 expect dE=-0.372E-05 dE for cont linesearch -0.665E-07
 trial: gam= 0.00000 g(F)=  0.157E-05 g(S)=  0.653E-06 ort =-0.336E-06 (trialstep = 0.578E+00)
 search vector abs. value=  0.222E-05
 bond charge predicted
       N       E                     dE             d eps       ncg     rms          rms(c)
DAV:   1    -0.624656721836E+02   -0.32416E-06   -0.67831E-05  4480   0.644E-02    0.271E-03
DAV:   2    -0.624656720966E+02    0.87018E-07   -0.17814E-06  5460   0.986E-03    0.167E-03
DAV:   3    -0.624656719796E+02    0.11691E-06   -0.23118E-07  5520   0.349E-03    0.598E-04
DAV:   4    -0.624656719635E+02    0.16178E-07   -0.47895E-08  4380   0.151E-03    0.356E-04
DAV:   5    -0.624656719467E+02    0.16775E-07   -0.62766E-09  2580   0.556E-04    0.112E-04
DAV:   6    -0.624656719430E+02    0.36584E-08   -0.11474E-09  2352   0.261E-04
 192 F= -.62465672E+02 E0= -.62448986E+02  d E =-.757732E-07
 trial-energy change:   -0.000000  1 .order   -0.000000   -0.000001    0.000001
 step:   0.2894(harm=  0.3509)  dis= 0.00003  next Energy=   -62.465672 (dE=-0.303E-06)
 bond charge predicted
       N       E                     dE             d eps       ncg     rms          rms(c)
DAV:   1    -0.624656721053E+02   -0.15863E-06   -0.16930E-05  4480   0.321E-02    0.136E-03
DAV:   2    -0.624656721369E+02   -0.31576E-07   -0.44688E-07  5448   0.494E-03    0.841E-04
DAV:   3    -0.624656721536E+02   -0.16661E-07   -0.58334E-08  5276   0.175E-03    0.300E-04
DAV:   4    -0.624656721587E+02   -0.51173E-08   -0.11225E-08  2540   0.758E-04
 193 F= -.62465672E+02 E0= -.62448984E+02  d E =-.291420E-06
 curvature:  -0.16 expect dE=-0.735E-07 dE for cont linesearch -0.107E-07
 trial: gam= 0.03128 g(F)=  0.278E-06 g(S)=  0.174E-06 ort = 0.383E-06 (trialstep = 0.521E+00)
 search vector abs. value=  0.478E-06
 bond charge predicted
       N       E                     dE             d eps       ncg     rms          rms(c)
DAV:   1    -0.624656723456E+02   -0.19202E-06   -0.93800E-06  4480   0.235E-02    0.101E-03
DAV:   2    -0.624656723255E+02    0.20087E-07   -0.22306E-07  5824   0.344E-03    0.581E-04
DAV:   3    -0.624656723166E+02    0.88719E-08   -0.27568E-08  3808   0.123E-03
 194 F= -.62465672E+02 E0= -.62448983E+02  d E =-.157944E-06
 trial-energy change:   -0.000000  1 .order   -0.000000   -0.000000   -0.000000
 step:   0.7702(harm=  0.7702)  dis= 0.00005  next Energy=   -62.465672 (dE=-0.179E-06)
 bond charge predicted
       N       E                     dE             d eps       ncg     rms          rms(c)
DAV:   1    -0.624656723390E+02   -0.13546E-07   -0.21520E-06  4496   0.113E-02    0.574E-04
DAV:   2    -0.624656723307E+02    0.83139E-08   -0.51435E-08  5352   0.167E-03
 195 F= -.62465672E+02 E0= -.62448983E+02  d E =-.172048E-06
 curvature:  -0.40 expect dE=-0.208E-06 dE for cont linesearch -0.264E-09
 trial: gam= 1.15063 g(F)=  0.363E-06 g(S)=  0.162E-06 ort = 0.179E-07 (trialstep = 0.228E+00)
 search vector abs. value=  0.120E-05
 bond charge predicted
       N       E                     dE             d eps       ncg     rms          rms(c)
DAV:   1    -0.624656724319E+02   -0.92864E-07   -0.39808E-06  4480   0.151E-02    0.663E-04
DAV:   2    -0.624656724262E+02    0.56959E-08   -0.79044E-08  5496   0.200E-03
 196 F= -.62465672E+02 E0= -.62448983E+02  d E =-.954815E-07
 trial-energy change:   -0.000000  1 .order   -0.000000   -0.000000   -0.000000
 step:   0.8057(harm=  0.8057)  dis= 0.00005  next Energy=   -62.465673 (dE=-0.220E-06)
 bond charge predicted
       N       E                     dE             d eps       ncg     rms          rms(c)
DAV:   1    -0.624656725264E+02   -0.94532E-07   -0.25338E-05  4480   0.382E-02    0.156E-03
DAV:   2    -0.624656725051E+02    0.21335E-07   -0.46289E-07  5856   0.482E-03    0.924E-04
DAV:   3    -0.624656724896E+02    0.15454E-07   -0.72328E-08  5348   0.181E-03    0.263E-04
DAV:   4    -0.624656724921E+02   -0.24743E-08   -0.86429E-09  2704   0.702E-04
 197 F= -.62465672E+02 E0= -.62448984E+02  d E =-.161395E-06
 curvature:  -0.89 expect dE=-0.657E-06 dE for cont linesearch -0.863E-08
 trial: gam= 0.00000 g(F)=  0.653E-06 g(S)=  0.889E-07 ort =-0.108E-06 (trialstep = 0.343E+00)
 search vector abs. value=  0.742E-06
 bond charge predicted
       N       E                     dE             d eps       ncg     rms          rms(c)
DAV:   1    -0.624656726411E+02   -0.15146E-06   -0.87530E-06  4480   0.225E-02    0.884E-04
DAV:   2    -0.624656726444E+02   -0.32715E-08   -0.22497E-07  5728   0.330E-03    0.525E-04
DAV:   3    -0.624656726439E+02    0.51637E-09   -0.15940E-08  3020   0.998E-04
 198 F= -.62465673E+02 E0= -.62448983E+02  d E =-.151741E-06
 trial-energy change:   -0.000000  1 .order   -0.000000   -0.000000   -0.000000
 step:   0.4093(harm=  0.4093)  dis= 0.00002  next Energy=   -62.465673 (dE=-0.152E-06)
 bond charge predicted
       N       E                     dE             d eps       ncg     rms          rms(c)
DAV:   1    -0.624656726493E+02   -0.49449E-08   -0.29830E-07  4540   0.419E-03    0.224E-04
DAV:   2    -0.624656726506E+02   -0.12899E-08   -0.59325E-09  2620   0.573E-04
 199 F= -.62465673E+02 E0= -.62448983E+02  d E =-.158493E-06
 curvature:  -0.20 expect dE=-0.938E-07 dE for cont linesearch -0.187E-09
 trial: gam= 0.65303 g(F)=  0.286E-06 g(S)=  0.172E-06 ort =-0.260E-07 (trialstep = 0.356E+00)
 search vector abs. value=  0.741E-06
 bond charge predicted
       N       E                     dE             d eps       ncg     rms          rms(c)
DAV:   1    -0.624656727799E+02   -0.13059E-06   -0.60647E-06  4480   0.188E-02    0.833E-04
DAV:   2    -0.624656727684E+02    0.11544E-07   -0.14268E-07  5840   0.275E-03    0.484E-04
DAV:   3    -0.624656727651E+02    0.32178E-08   -0.23158E-08  3320   0.114E-03
 200 F= -.62465673E+02 E0= -.62448982E+02  d E =-.114535E-06
 trial-energy change:   -0.000000  1 .order   -0.000000   -0.000000   -0.000000
 step:   0.6812(harm=  0.6812)  dis= 0.00003  next Energy=   -62.465673 (dE=-0.150E-06)
 bond charge predicted
       N       E                     dE             d eps       ncg     rms          rms(c)
DAV:   1    -0.624656728092E+02   -0.40832E-07   -0.50356E-06  4480   0.172E-02    0.799E-04
DAV:   2    -0.624656728000E+02    0.92298E-08   -0.11883E-07  5752   0.252E-03    0.474E-04
DAV:   3    -0.624656727965E+02    0.34613E-08   -0.19566E-08  3264   0.106E-03
 201 F= -.62465673E+02 E0= -.62448980E+02  d E =-.145894E-06
 curvature:  -0.57 expect dE=-0.204E-06 dE for cont linesearch -0.910E-11
 trial: gam= 0.71060 g(F)=  0.218E-06 g(S)=  0.138E-06 ort =-0.343E-08 (trialstep = 0.421E+00)
 search vector abs. value=  0.726E-06
 bond charge predicted
       N       E                     dE             d eps       ncg     rms          rms(c)
DAV:   1    -0.624656729500E+02   -0.15001E-06   -0.58724E-06  4480   0.180E-02    0.103E-03
DAV:   2    -0.624656729217E+02    0.28291E-07   -0.16460E-07  5536   0.268E-03    0.553E-04
DAV:   3    -0.624656729136E+02    0.80636E-08   -0.17985E-08  3176   0.931E-04
 202 F= -.62465673E+02 E0= -.62448979E+02  d E =-.117121E-06
 ZBRENT: can't locate minimum, use default step
 trial-energy change:   -0.000000  1 .order   -0.000000   -0.000000   -0.000000
 step:   1.6855(harm=  2.0509)  dis= 0.00005  next Energy=   -62.465673 (dE=-0.363E-06)
 bond charge predicted
       N       E                     dE             d eps       ncg     rms          rms(c)
DAV:   1    -0.624656732880E+02   -0.36632E-06   -0.52613E-05  4480   0.538E-02    0.302E-03
DAV:   2    -0.624656730907E+02    0.19736E-06   -0.14713E-06  5536   0.802E-03    0.159E-03
DAV:   3    -0.624656730223E+02    0.68371E-07   -0.16415E-07  5532   0.269E-03    0.680E-04
DAV:   4    -0.624656730176E+02    0.46662E-08   -0.47563E-08  5232   0.134E-03
 203 F= -.62465673E+02 E0= -.62448977E+02  d E =-.221112E-06
 curvature:  -2.00 expect dE=-0.292E-05 dE for cont linesearch -0.936E-08
 trial: gam= 4.24872 g(F)=  0.138E-05 g(S)=  0.835E-07 ort =-0.583E-07 (trialstep = 0.348E-01)
 search vector abs. value=  0.141E-04
 bond charge predicted
       N       E                     dE             d eps       ncg     rms          rms(c)
DAV:   1    -0.624656730681E+02   -0.45806E-07   -0.80959E-07  4504   0.656E-03    0.388E-04
DAV:   2    -0.624656730615E+02    0.65656E-08   -0.19064E-08  3036   0.978E-04
 204 F= -.62465673E+02 E0= -.62448976E+02  d E =-.439068E-07
 ZBRENT: can't locate minimum, use default step
 trial-energy change:   -0.000000  1 .order   -0.000000   -0.000000   -0.000000
 step:   0.1391(harm=  0.1391)  dis= 0.00003  next Energy=   -62.465673 (dE=-0.198E-06)
 bond charge predicted
       N       E                     dE             d eps       ncg     rms          rms(c)
DAV:   1    -0.624656732130E+02   -0.14489E-06   -0.70838E-06  4480   0.195E-02    0.116E-03
DAV:   2    -0.624656731746E+02    0.38361E-07   -0.19965E-07  5640   0.294E-03    0.595E-04
DAV:   3    -0.624656731644E+02    0.10178E-07   -0.23599E-08  3248   0.105E-03    0.252E-04
DAV:   4    -0.624656731661E+02   -0.16671E-08   -0.90579E-09  2368   0.615E-04
 205 F= -.62465673E+02 E0= -.62448974E+02  d E =-.148493E-06
 curvature:  -1.24 expect dE=-0.142E-05 dE for cont linesearch -0.839E-07
 trial: gam=-0.07746 g(F)=  0.103E-05 g(S)=  0.106E-06 ort = 0.974E-06 (trialstep = 0.557E-01)
 search vector abs. value=  0.107E-05
 bond charge predicted
       N       E                     dE             d eps       ncg     rms          rms(c)
DAV:   1    -0.624656732221E+02   -0.57684E-07   -0.36983E-07  4508   0.470E-03    0.172E-04
DAV:   2    -0.624656732214E+02    0.68690E-09   -0.83552E-09  2344   0.697E-04
 206 F= -.62465673E+02 E0= -.62448973E+02  d E =-.553300E-07
 ZBRENT: can't locate minimum, use default step
 trial-energy change:   -0.000000  1 .order   -0.000000   -0.000000   -0.000000
 step:   0.2226(harm=  0.3606)  dis= 0.00003  next Energy=   -62.465673 (dE=-0.192E-06)
 bond charge predicted
       N       E                     dE             d eps       ncg     rms          rms(c)
DAV:   1    -0.624656733248E+02   -0.10270E-06   -0.32297E-06  4492   0.139E-02    0.509E-04
DAV:   2    -0.624656733248E+02    0.22055E-10   -0.74438E-08  5372   0.197E-03
 207 F= -.62465673E+02 E0= -.62448972E+02  d E =-.158700E-06
 curvature:  -0.14 expect dE=-0.435E-07 dE for cont linesearch -0.189E-07
 trial: gam=-0.12370 g(F)=  0.173E-06 g(S)=  0.127E-06 ort = 0.375E-06 (trialstep = 0.890E-01)
 search vector abs. value=  0.225E-06
 reached required accuracy - stopping structural energy minimisation
 writing wavefunctions
Sun Mar  6 01:19:39 CST 2022
