Sun Mar  6 00:51:57 CST 2022
 running on   48 total cores
 distrk:  each k-point on   48 cores,    1 groups
 distr:  one band on   24 cores,    2 groups
 using from now: INCAR     
 vasp.5.3.5 31Mar14 (build Jan 11 2016 19:50:55) complex                        
  
 POSCAR found type information on POSCAR  B  C 
 POSCAR found :  2 types and       8 ions
 scaLAPACK will be used

 ----------------------------------------------------------------------------- 
|                                                                             |
|           W    W    AA    RRRRR   N    N  II  N    N   GGGG   !!!           |
|           W    W   A  A   R    R  NN   N  II  NN   N  G    G  !!!           |
|           W    W  A    A  R    R  N N  N  II  N N  N  G       !!!           |
|           W WW W  AAAAAA  RRRRR   N  N N  II  N  N N  G  GGG   !            |
|           WW  WW  A    A  R   R   N   NN  II  N   NN  G    G                |
|           W    W  A    A  R    R  N    N  II  N    N   GGGG   !!!           |
|                                                                             |
|      For optimal performance we recommend to set                            |
|        NCORE= 4 - approx SQRT( number of cores)                             |
|      NCORE specifies how many cores store one orbital (NPAR=cpu/NCORE).     |
|      This setting can  greatly improve the performance of VASP for DFT.     |
|      The default, NPAR=number of cores might be grossly inefficient         |
|      on modern multi-core architectures or massively parallel machines.     |
|      Do your own testing !!!!                                               |
|      Unfortunately you need to use the default for GW and RPA calculations. |
|      (for HF NCORE is supported but not extensively tested yet)             |
|                                                                             |
 ----------------------------------------------------------------------------- 

 LDA part: xc-table for Pade appr. of Perdew
 POSCAR, INCAR and KPOINTS ok, starting setup
 WARNING: small aliasing (wrap around) errors must be expected
 FFT: planning ...
 WAVECAR not read
 entering main loop
       N       E                     dE             d eps       ncg     rms          rms(c)
DAV:   1     0.160220501785E+03    0.16022E+03   -0.16615E+04  4480   0.172E+03
DAV:   2    -0.529804828129E+02   -0.21320E+03   -0.20689E+03  6260   0.288E+02
DAV:   3    -0.675471086227E+02   -0.14567E+02   -0.14371E+02  5432   0.777E+01
DAV:   4    -0.679201836343E+02   -0.37308E+00   -0.37210E+00  6072   0.134E+01
DAV:   5    -0.679280624450E+02   -0.78788E-02   -0.78758E-02  5628   0.189E+00    0.132E+01
DAV:   6    -0.629518830571E+02    0.49762E+01   -0.97904E+00  5248   0.170E+01    0.682E+00
DAV:   7    -0.618985469647E+02    0.10533E+01   -0.33347E+00  5388   0.106E+01    0.359E+00
DAV:   8    -0.617317455831E+02    0.16680E+00   -0.87643E-01  5324   0.515E+00    0.142E+00
DAV:   9    -0.617370725862E+02   -0.53270E-02   -0.39821E-02  5300   0.141E+00    0.628E-01
DAV:  10    -0.617415518036E+02   -0.44792E-02   -0.88486E-03  5368   0.675E-01    0.984E-02
DAV:  11    -0.617421798268E+02   -0.62802E-03   -0.97685E-04  5584   0.225E-01    0.544E-02
DAV:  12    -0.617425644846E+02   -0.38466E-03   -0.30037E-04  4948   0.130E-01    0.205E-02
DAV:  13    -0.617426171667E+02   -0.52682E-04   -0.60634E-05  5220   0.600E-02    0.690E-03
DAV:  14    -0.617426211610E+02   -0.39943E-05   -0.78914E-06  5212   0.233E-02    0.336E-03
DAV:  15    -0.617426217880E+02   -0.62702E-06   -0.13855E-06  5308   0.969E-03    0.111E-03
DAV:  16    -0.617426219622E+02   -0.17416E-06   -0.22929E-07  5236   0.417E-03    0.513E-04
DAV:  17    -0.617426220213E+02   -0.59098E-07   -0.45292E-08  4800   0.199E-03    0.202E-04
DAV:  18    -0.617426220363E+02   -0.14978E-07   -0.10110E-08  3872   0.963E-04    0.603E-05
DAV:  19    -0.617426220365E+02   -0.28831E-09   -0.79165E-10  3424   0.252E-04
   1 F= -.61742622E+02 E0= -.61703429E+02  d E =-.617426E+02
 curvature:   0.00 expect dE= 0.000E+00 dE for cont linesearch  0.000E+00
 trial: gam= 0.00000 g(F)=  0.107E-02 g(S)=  0.684E-03 ort = 0.000E+00 (trialstep = 0.100E+01)
 search vector abs. value=  0.176E-02
 bond charge predicted
       N       E                     dE             d eps       ncg     rms          rms(c)
DAV:   1    -0.617428316646E+02   -0.20963E-03   -0.17303E-01  4772   0.316E+00    0.232E-01
DAV:   2    -0.617419764446E+02    0.85522E-03   -0.10387E-02  5628   0.649E-01    0.119E-01
DAV:   3    -0.617416569489E+02    0.31950E-03   -0.12290E-03  5348   0.240E-01    0.711E-02
DAV:   4    -0.617415594512E+02    0.97498E-04   -0.52019E-04  5368   0.160E-01    0.142E-02
DAV:   5    -0.617415567494E+02    0.27018E-05   -0.61443E-05  5340   0.555E-02    0.735E-03
DAV:   6    -0.617415570005E+02   -0.25114E-06   -0.72777E-06  5744   0.174E-02    0.320E-03
DAV:   7    -0.617415571771E+02   -0.17656E-06   -0.45480E-07  5756   0.476E-03    0.130E-03
DAV:   8    -0.617415573004E+02   -0.12335E-06   -0.13321E-07  5076   0.278E-03    0.333E-04
DAV:   9    -0.617415573194E+02   -0.18968E-07   -0.16333E-08  3644   0.985E-04    0.200E-04
DAV:  10    -0.617415573286E+02   -0.92693E-08   -0.63963E-09  3212   0.667E-04
   2 F= -.61741557E+02 E0= -.61702635E+02  d E =0.106471E-02
 trial-energy change:    0.001065  1 .order    0.001086   -0.001756    0.003927
 step:   0.3137(harm=  0.3089)  dis= 0.00099  next Energy=   -61.742898 (dE=-0.276E-03)
 bond charge predicted
       N       E                     dE             d eps       ncg     rms          rms(c)
DAV:   1    -0.617435098256E+02   -0.19525E-02   -0.81596E-02  4724   0.216E+00    0.160E-01
DAV:   2    -0.617431040322E+02    0.40579E-03   -0.49019E-03  5652   0.446E-01    0.824E-02
DAV:   3    -0.617429481791E+02    0.15585E-03   -0.59404E-04  5356   0.167E-01    0.491E-02
DAV:   4    -0.617429008857E+02    0.47293E-04   -0.25348E-04  5396   0.111E-01    0.102E-02
DAV:   5    -0.617428990014E+02    0.18843E-05   -0.30498E-05  5344   0.392E-02    0.518E-03
DAV:   6    -0.617428988588E+02    0.14257E-06   -0.38471E-06  5776   0.126E-02    0.224E-03
DAV:   7    -0.617428987689E+02    0.89892E-07   -0.23811E-07  5716   0.345E-03    0.925E-04
DAV:   8    -0.617428987197E+02    0.49237E-07   -0.67041E-08  5096   0.198E-03    0.234E-04
DAV:   9    -0.617428987162E+02    0.35207E-08   -0.80235E-09  3500   0.687E-04
   3 F= -.61742899E+02 E0= -.61703784E+02  d E =-.276680E-03
 curvature:  -0.15 expect dE=-0.111E-03 dE for cont linesearch -0.154E-08
 trial: gam= 0.41021 g(F)=  0.468E-03 g(S)=  0.248E-03 ort =-0.418E-05 (trialstep = 0.863E+00)
 search vector abs. value=  0.101E-02
 bond charge predicted
       N       E                     dE             d eps       ncg     rms          rms(c)
DAV:   1    -0.617434869396E+02   -0.58822E-03   -0.57114E-02  4532   0.178E+00    0.131E-01
DAV:   2    -0.617430161739E+02    0.47077E-03   -0.21950E-03  5528   0.339E-01    0.671E-02
DAV:   3    -0.617428966087E+02    0.11957E-03   -0.42532E-04  5320   0.127E-01    0.332E-02
DAV:   4    -0.617428649797E+02    0.31629E-04   -0.93698E-05  5492   0.609E-02    0.101E-02
DAV:   5    -0.617428634835E+02    0.14962E-05   -0.11509E-05  5380   0.227E-02    0.422E-03
DAV:   6    -0.617428635477E+02   -0.64174E-07   -0.85681E-07  5756   0.660E-03    0.205E-03
DAV:   7    -0.617428636584E+02   -0.11067E-06   -0.16043E-07  5300   0.311E-03    0.477E-04
DAV:   8    -0.617428636827E+02   -0.24367E-07   -0.15272E-08  3516   0.103E-03    0.238E-04
DAV:   9    -0.617428636921E+02   -0.93478E-08   -0.71965E-09  3248   0.707E-04
   4 F= -.61742864E+02 E0= -.61703747E+02  d E =0.350241E-04
 trial-energy change:    0.000035  1 .order    0.000033   -0.000616    0.000683
 step:   0.4075(harm=  0.4093)  dis= 0.00068  next Energy=   -61.743044 (dE=-0.145E-03)
 bond charge predicted
       N       E                     dE             d eps       ncg     rms          rms(c)
DAV:   1    -0.617432173142E+02   -0.35363E-03   -0.15890E-02  4528   0.936E-01    0.692E-02
DAV:   2    -0.617430869835E+02    0.13033E-03   -0.61408E-04  5528   0.179E-01    0.355E-02
DAV:   3    -0.617430536611E+02    0.33322E-04   -0.11799E-04  5320   0.670E-02    0.176E-02
DAV:   4    -0.617430444890E+02    0.91722E-05   -0.26367E-05  5476   0.322E-02    0.533E-03
DAV:   5    -0.617430438556E+02    0.63337E-06   -0.31993E-06  5372   0.120E-02    0.221E-03
DAV:   6    -0.617430437925E+02    0.63070E-07   -0.23691E-07  5772   0.347E-03    0.108E-03
DAV:   7    -0.617430437658E+02    0.26743E-07   -0.44487E-08  5096   0.164E-03    0.251E-04
DAV:   8    -0.617430437613E+02    0.44656E-08   -0.44184E-09  3408   0.552E-04
   5 F= -.61743044E+02 E0= -.61703927E+02  d E =-.145045E-03
 curvature:  -0.29 expect dE=-0.142E-03 dE for cont linesearch -0.476E-09
 trial: gam= 0.67775 g(F)=  0.331E-03 g(S)=  0.160E-03 ort = 0.129E-05 (trialstep = 0.772E+00)
 search vector abs. value=  0.955E-03
 bond charge predicted
       N       E                     dE             d eps       ncg     rms          rms(c)
DAV:   1    -0.617438627044E+02   -0.81894E-03   -0.36388E-02  4480   0.136E+00    0.102E-01
DAV:   2    -0.617434292598E+02    0.43344E-03   -0.91207E-04  5356   0.213E-01    0.544E-02
DAV:   3    -0.617432919563E+02    0.13730E-03   -0.42808E-04  5296   0.114E-01    0.163E-02
DAV:   4    -0.617432839237E+02    0.80326E-05   -0.37615E-05  6168   0.398E-02    0.871E-03
DAV:   5    -0.617432834423E+02    0.48140E-06   -0.59323E-06  5272   0.152E-02    0.478E-03
DAV:   6    -0.617432834479E+02   -0.56102E-08   -0.78061E-07  5336   0.635E-03    0.198E-03
DAV:   7    -0.617432835979E+02   -0.14996E-06   -0.20733E-07  5896   0.332E-03    0.569E-04
DAV:   8    -0.617432836176E+02   -0.19752E-07   -0.22663E-08  3540   0.118E-03    0.253E-04
DAV:   9    -0.617432836314E+02   -0.13757E-07   -0.10565E-08  3224   0.796E-04    0.859E-05
DAV:  10    -0.617432836320E+02   -0.66143E-09   -0.14080E-09  2888   0.310E-04
   6 F= -.61743284E+02 E0= -.61704243E+02  d E =-.239871E-03
 trial-energy change:   -0.000240  1 .order   -0.000240   -0.000379   -0.000101
 step:   1.0529(harm=  1.0529)  dis= 0.00172  next Energy=   -61.743302 (dE=-0.258E-03)
 bond charge predicted
       N       E                     dE             d eps       ncg     rms          rms(c)
DAV:   1    -0.617433789610E+02   -0.95330E-04   -0.48371E-03  4484   0.497E-01    0.373E-02
DAV:   2    -0.617433210827E+02    0.57878E-04   -0.12102E-04  5356   0.777E-02    0.199E-02
DAV:   3    -0.617433027502E+02    0.18332E-04   -0.57191E-05  5284   0.416E-02    0.591E-03
DAV:   4    -0.617433017722E+02    0.97807E-06   -0.49517E-06  6168   0.144E-02    0.317E-03
DAV:   5    -0.617433017495E+02    0.22679E-07   -0.78738E-07  5284   0.555E-03    0.174E-03
DAV:   6    -0.617433017725E+02   -0.22972E-07   -0.10401E-07  5336   0.232E-03    0.724E-04
DAV:   7    -0.617433018085E+02   -0.36036E-07   -0.26069E-08  4264   0.121E-03    0.197E-04
DAV:   8    -0.617433018135E+02   -0.49949E-08   -0.36956E-09  3148   0.493E-04
   7 F= -.61743302E+02 E0= -.61704289E+02  d E =-.258052E-03
 curvature:  -1.02 expect dE=-0.710E-03 dE for cont linesearch -0.226E-10
 trial: gam= 1.42316 g(F)=  0.438E-03 g(S)=  0.256E-03 ort =-0.145E-06 (trialstep = 0.301E+00)
 search vector abs. value=  0.263E-02
 bond charge predicted
       N       E                     dE             d eps       ncg     rms          rms(c)
DAV:   1    -0.617437879821E+02   -0.48617E-03   -0.14940E-02  4480   0.830E-01    0.763E-02
DAV:   2    -0.617435533033E+02    0.23468E-03   -0.40620E-04  5220   0.126E-01    0.371E-02
DAV:   3    -0.617434796792E+02    0.73624E-04   -0.22728E-04  5344   0.868E-02    0.123E-02
DAV:   4    -0.617434748109E+02    0.48682E-05   -0.22800E-05  5324   0.302E-02    0.644E-03
DAV:   5    -0.617434746859E+02    0.12506E-06   -0.21490E-06  5344   0.990E-03    0.278E-03
DAV:   6    -0.617434747479E+02   -0.61981E-07   -0.48131E-07  6164   0.485E-03    0.846E-04
DAV:   7    -0.617434748117E+02   -0.63790E-07   -0.70755E-08  5208   0.194E-03    0.374E-04
DAV:   8    -0.617434748253E+02   -0.13623E-07   -0.10283E-08  3392   0.762E-04    0.156E-04
DAV:   9    -0.617434748252E+02    0.80263E-10   -0.29887E-09  3060   0.430E-04
   8 F= -.61743475E+02 E0= -.61704534E+02  d E =-.173012E-03
 trial-energy change:   -0.000173  1 .order   -0.000174   -0.000209   -0.000139
 step:   1.1618(harm=  0.9029)  dis= 0.00198  next Energy=   -61.743653 (dE=-0.351E-03)
 bond charge predicted
       N       E                     dE             d eps       ncg     rms          rms(c)
DAV:   1    -0.617461535326E+02   -0.26787E-02   -0.12268E-01  4480   0.238E+00    0.219E-01
DAV:   2    -0.617442330134E+02    0.19205E-02   -0.33364E-03  5232   0.362E-01    0.106E-01
DAV:   3    -0.617436284452E+02    0.60457E-03   -0.18676E-03  5348   0.249E-01    0.348E-02
DAV:   4    -0.617435891482E+02    0.39297E-04   -0.18304E-04  5320   0.857E-02    0.184E-02
DAV:   5    -0.617435871774E+02    0.19708E-05   -0.17350E-05  5344   0.281E-02    0.795E-03
DAV:   6    -0.617435871857E+02   -0.83194E-08   -0.38945E-06  6172   0.138E-02    0.240E-03
DAV:   7    -0.617435875573E+02   -0.37157E-06   -0.56881E-07  5212   0.549E-03    0.107E-03
DAV:   8    -0.617435876500E+02   -0.92678E-07   -0.94260E-08  5304   0.217E-03    0.475E-04
DAV:   9    -0.617435876566E+02   -0.66177E-08   -0.22727E-08  4048   0.108E-03
   9 F= -.61743588E+02 E0= -.61704855E+02  d E =-.285843E-03
 curvature:  -1.39 expect dE=-0.346E-02 dE for cont linesearch -0.206E-04
 ZBRENT: interpolating
 opt :   0.9047  next Energy=   -61.743613 (dE=-0.311E-03)
 bond charge predicted
       N       E                     dE             d eps       ncg     rms          rms(c)
DAV:   1    -0.617438425491E+02   -0.25490E-03   -0.10951E-02  4480   0.710E-01    0.653E-02
DAV:   2    -0.617436718684E+02    0.17068E-03   -0.29700E-04  5244   0.108E-01    0.318E-02
DAV:   3    -0.617436174444E+02    0.54424E-04   -0.16754E-04  5336   0.745E-02    0.104E-02
DAV:   4    -0.617436137009E+02    0.37435E-05   -0.16575E-05  5316   0.258E-02    0.551E-03
DAV:   5    -0.617436133396E+02    0.36135E-06   -0.15771E-06  5340   0.847E-03    0.237E-03
DAV:   6    -0.617436132348E+02    0.10482E-06   -0.35331E-07  6164   0.415E-03    0.725E-04
DAV:   7    -0.617436132382E+02   -0.34574E-08   -0.51821E-08  5156   0.166E-03
  10 F= -.61743613E+02 E0= -.61704818E+02  d E =-.311425E-03
 curvature:  -1.72 expect dE=-0.253E-02 dE for cont linesearch -0.317E-12
 trial: gam= 2.11614 g(F)=  0.112E-02 g(S)=  0.356E-03 ort =-0.220E-07 (trialstep = 0.837E-01)
 search vector abs. value=  0.132E-01
 bond charge predicted
       N       E                     dE             d eps       ncg     rms          rms(c)
DAV:   1    -0.617438632765E+02   -0.25004E-03   -0.53129E-03  4480   0.487E-01    0.499E-02
DAV:   2    -0.617437641624E+02    0.99114E-04   -0.16224E-04  5056   0.777E-02    0.237E-02
DAV:   3    -0.617437355378E+02    0.28625E-04   -0.86458E-05  5268   0.544E-02    0.872E-03
DAV:   4    -0.617437325076E+02    0.30302E-05   -0.12681E-05  5344   0.215E-02    0.398E-03
DAV:   5    -0.617437324881E+02    0.19476E-07   -0.72083E-07  5392   0.579E-03    0.199E-03
DAV:   6    -0.617437325660E+02   -0.77881E-07   -0.21559E-07  5428   0.327E-03    0.480E-04
DAV:   7    -0.617437325966E+02   -0.30583E-07   -0.27569E-08  4344   0.119E-03    0.231E-04
DAV:   8    -0.617437326059E+02   -0.92962E-08   -0.40534E-09  3200   0.498E-04
  11 F= -.61743733E+02 E0= -.61704954E+02  d E =-.119368E-03
 ZBRENT: can't locate minimum, use default step
 trial-energy change:   -0.000119  1 .order   -0.000119   -0.000123   -0.000116
 step:   0.3347(harm=  1.3029)  dis= 0.00093  next Energy=   -61.744574 (dE=-0.961E-03)
 bond charge predicted
       N       E                     dE             d eps       ncg     rms          rms(c)
DAV:   1    -0.617452248235E+02   -0.14922E-02   -0.47979E-02  4480   0.146E+00    0.150E-01
DAV:   2    -0.617443316263E+02    0.89320E-03   -0.14670E-03  5060   0.233E-01    0.713E-02
DAV:   3    -0.617440715187E+02    0.26011E-03   -0.78222E-04  5276   0.164E-01    0.260E-02
DAV:   4    -0.617440436769E+02    0.27842E-04   -0.11348E-04  5344   0.643E-02    0.119E-02
DAV:   5    -0.617440427817E+02    0.89518E-06   -0.64965E-06  5396   0.174E-02    0.597E-03
DAV:   6    -0.617440429058E+02   -0.12413E-06   -0.19611E-06  5428   0.986E-03    0.144E-03
DAV:   7    -0.617440430776E+02   -0.17173E-06   -0.26016E-07  5252   0.358E-03    0.703E-04
DAV:   8    -0.617440431296E+02   -0.51999E-07   -0.34286E-08  4596   0.138E-03    0.286E-04
DAV:   9    -0.617440431315E+02   -0.19847E-08   -0.75595E-09  3424   0.693E-04
  12 F= -.61744043E+02 E0= -.61705315E+02  d E =-.429893E-03
 curvature:  -2.16 expect dE=-0.211E-02 dE for cont linesearch -0.195E-03
 ZBRENT: increasing intervall
 opt :   0.8367  next Energy=   -61.744447 (dE=-0.834E-03)
 bond charge predicted
       N       E                     dE             d eps       ncg     rms          rms(c)
DAV:   1    -0.617491954271E+02   -0.51523E-02   -0.19308E-01  4480   0.294E+00    0.301E-01
DAV:   2    -0.617456095942E+02    0.35858E-02   -0.59072E-03  5060   0.467E-01    0.143E-01
DAV:   3    -0.617445628435E+02    0.10468E-02   -0.31493E-03  5280   0.328E-01    0.518E-02
DAV:   4    -0.617444529830E+02    0.10986E-03   -0.44907E-04  5344   0.128E-01    0.239E-02
DAV:   5    -0.617444486269E+02    0.43561E-05   -0.25795E-05  5396   0.346E-02    0.120E-02
DAV:   6    -0.617444485252E+02    0.10175E-06   -0.78286E-06  5420   0.197E-02    0.287E-03
DAV:   7    -0.617444490963E+02   -0.57113E-06   -0.10342E-06  5280   0.711E-03    0.140E-03
DAV:   8    -0.617444492748E+02   -0.17850E-06   -0.13983E-07  5204   0.275E-03    0.582E-04
DAV:   9    -0.617444492900E+02   -0.15138E-07   -0.29764E-08  4624   0.125E-03    0.171E-04
DAV:  10    -0.617444492892E+02    0.80036E-09   -0.32220E-09  3332   0.474E-04
  13 F= -.61744449E+02 E0= -.61705827E+02  d E =-.836051E-03
 curvature:  -4.48 expect dE=-0.538E-02 dE for cont linesearch -0.889E-04
 ZBRENT: increasing intervall
 opt :   1.8408  next Energy=   -61.744381 (dE=-0.768E-03)
 bond charge predicted
       N       E                     dE             d eps       ncg     rms          rms(c)
DAV:   1    -0.617635147724E+02   -0.19065E-01   -0.78185E-01  4480   0.592E+00    0.606E-01
DAV:   2    -0.617490491980E+02    0.14466E-01   -0.23975E-02  5056   0.937E-01    0.288E-01
DAV:   3    -0.617448185253E+02    0.42307E-02   -0.12777E-02  5292   0.662E-01    0.102E-01
DAV:   4    -0.617443990142E+02    0.41951E-03   -0.17491E-03  5348   0.253E-01    0.479E-02
DAV:   5    -0.617443798625E+02    0.19152E-04   -0.10153E-04  5396   0.687E-02    0.240E-02
DAV:   6    -0.617443782779E+02    0.15846E-05   -0.31191E-05  5404   0.392E-02    0.569E-03
DAV:   7    -0.617443802865E+02   -0.20087E-05   -0.40740E-06  5296   0.141E-02    0.279E-03
DAV:   8    -0.617443809341E+02   -0.64754E-06   -0.55859E-07  5176   0.545E-03    0.115E-03
DAV:   9    -0.617443810116E+02   -0.77486E-07   -0.11927E-07  5252   0.247E-03    0.347E-04
DAV:  10    -0.617443810145E+02   -0.29190E-08   -0.11653E-08  3536   0.846E-04
  14 F= -.61744381E+02 E0= -.61705988E+02  d E =-.767776E-03
 curvature:   3.44 expect dE= 0.179E-01 dE for cont linesearch  0.118E-03
 ZBRENT: bracketing found
 ZBRENT: interpolating
 opt :   1.2708  next Energy=   -61.744561 (dE=-0.947E-03)
 bond charge predicted
       N       E                     dE             d eps       ncg     rms          rms(c)
DAV:   1    -0.617508019148E+02   -0.64209E-02   -0.25213E-01  4480   0.335E+00    0.343E-01
DAV:   2    -0.617461055543E+02    0.46964E-02   -0.76179E-03  5060   0.534E-01    0.164E-01
DAV:   3    -0.617447128011E+02    0.13928E-02   -0.41784E-03  5272   0.377E-01    0.581E-02
DAV:   4    -0.617445725095E+02    0.14029E-03   -0.56925E-04  5348   0.144E-01    0.273E-02
DAV:   5    -0.617445654170E+02    0.70924E-05   -0.33880E-05  5400   0.397E-02    0.136E-02
DAV:   6    -0.617445639768E+02    0.14402E-05   -0.10319E-05  5456   0.225E-02    0.332E-03
DAV:   7    -0.617445644907E+02   -0.51385E-06   -0.13550E-06  5256   0.815E-03    0.160E-03
DAV:   8    -0.617445646520E+02   -0.16130E-06   -0.18435E-07  5188   0.314E-03    0.657E-04
DAV:   9    -0.617445646919E+02   -0.39862E-07   -0.39660E-08  4636   0.144E-03    0.195E-04
DAV:  10    -0.617445646986E+02   -0.67853E-08   -0.41455E-09  3392   0.537E-04
  15 F= -.61744565E+02 E0= -.61706039E+02  d E =-.951460E-03
 curvature:  -3.25 expect dE=-0.764E-02 dE for cont linesearch -0.372E-08
 trial: gam= 1.57570 g(F)=  0.176E-02 g(S)=  0.587E-03 ort = 0.389E-05 (trialstep = 0.121E+00)
 search vector abs. value=  0.352E-01
 bond charge predicted
       N       E                     dE             d eps       ncg     rms          rms(c)
DAV:   1    -0.617455861685E+02   -0.10215E-02   -0.30405E-02  4480   0.116E+00    0.121E-01
DAV:   2    -0.617450165008E+02    0.56967E-03   -0.97792E-04  5164   0.187E-01    0.562E-02
DAV:   3    -0.617448552964E+02    0.16120E-03   -0.43967E-04  5208   0.127E-01    0.245E-02
DAV:   4    -0.617448289379E+02    0.26359E-04   -0.10797E-04  5332   0.597E-02    0.994E-03
DAV:   5    -0.617448284809E+02    0.45705E-06   -0.34679E-06  5400   0.131E-02    0.516E-03
DAV:   6    -0.617448286030E+02   -0.12217E-06   -0.16600E-06  5496   0.889E-03    0.110E-03
DAV:   7    -0.617448286658E+02   -0.62727E-07   -0.18414E-07  5288   0.296E-03    0.594E-04
DAV:   8    -0.617448287040E+02   -0.38199E-07   -0.23702E-08  4424   0.115E-03    0.253E-04
DAV:   9    -0.617448287063E+02   -0.23963E-08   -0.59523E-09  3328   0.614E-04
  16 F= -.61744829E+02 E0= -.61706310E+02  d E =-.264008E-03
 ZBRENT: can't locate minimum, use default step
 trial-energy change:   -0.000264  1 .order   -0.000264   -0.000284   -0.000245
 step:   0.4827(harm=  0.8712)  dis= 0.00241  next Energy=   -61.745591 (dE=-0.103E-02)
 bond charge predicted
       N       E                     dE             d eps       ncg     rms          rms(c)
DAV:   1    -0.617522192299E+02   -0.73905E-02   -0.27549E-01  4480   0.348E+00    0.364E-01
DAV:   2    -0.617470818091E+02    0.51374E-02   -0.89208E-03  5172   0.562E-01    0.169E-01
DAV:   3    -0.617456235913E+02    0.14582E-02   -0.39754E-03  5216   0.381E-01    0.731E-02
DAV:   4    -0.617453895234E+02    0.23407E-03   -0.96095E-04  5332   0.178E-01    0.298E-02
DAV:   5    -0.617453837509E+02    0.57725E-05   -0.30830E-05  5404   0.391E-02    0.155E-02
DAV:   6    -0.617453834751E+02    0.27580E-06   -0.14860E-05  5496   0.266E-02    0.329E-03
DAV:   7    -0.617453839740E+02   -0.49881E-06   -0.16507E-06  5288   0.884E-03    0.178E-03
DAV:   8    -0.617453842436E+02   -0.26965E-06   -0.22051E-07  5244   0.343E-03    0.765E-04
DAV:   9    -0.617453842798E+02   -0.36164E-07   -0.49801E-08  4672   0.164E-03    0.242E-04
DAV:  10    -0.617453842793E+02    0.51682E-09   -0.54174E-09  3424   0.602E-04
  17 F= -.61745384E+02 E0= -.61706895E+02  d E =-.819581E-03
 curvature:  -4.77 expect dE=-0.535E-02 dE for cont linesearch -0.144E-03
 ZBRENT: increasing intervall
 opt :   1.2066  next Energy=   -61.745407 (dE=-0.842E-03)
 bond charge predicted
       N       E                     dE             d eps       ncg     rms          rms(c)
DAV:   1    -0.617729398333E+02   -0.27556E-01   -0.11187E+00  4480   0.703E+00    0.733E-01
DAV:   2    -0.617522089386E+02    0.20731E-01   -0.36658E-02  5176   0.113E+00    0.340E-01
DAV:   3    -0.617463075563E+02    0.59014E-02   -0.16124E-02  5240   0.766E-01    0.143E-01
DAV:   4    -0.617454179131E+02    0.88964E-03   -0.37202E-03  5332   0.350E-01    0.596E-02
DAV:   5    -0.617453928806E+02    0.25033E-04   -0.12062E-04  5404   0.772E-02    0.310E-02
DAV:   6    -0.617453904194E+02    0.24611E-05   -0.58606E-05  5504   0.526E-02    0.651E-03
DAV:   7    -0.617453922582E+02   -0.18388E-05   -0.65127E-06  5276   0.175E-02    0.354E-03
DAV:   8    -0.617453932394E+02   -0.98119E-06   -0.87755E-07  5256   0.677E-03    0.150E-03
DAV:   9    -0.617453933973E+02   -0.15794E-06   -0.19456E-07  5252   0.318E-03    0.493E-04
DAV:  10    -0.617453934039E+02   -0.66257E-08   -0.20289E-08  4072   0.107E-03
  18 F= -.61745393E+02 E0= -.61707001E+02  d E =-.828705E-03
 curvature:  -0.74 expect dE=-0.327E-02 dE for cont linesearch -0.226E-04
 ZBRENT: bracketing found
 ZBRENT: interpolating
 opt :   0.8435  next Energy=   -61.745570 (dE=-0.101E-02)
 bond charge predicted
       N       E                     dE             d eps       ncg     rms          rms(c)
DAV:   1    -0.617526132961E+02   -0.72199E-02   -0.28189E-01  4480   0.351E+00    0.367E-01
DAV:   2    -0.617473378232E+02    0.52755E-02   -0.89178E-03  5192   0.568E-01    0.171E-01
DAV:   3    -0.617458160094E+02    0.15218E-02   -0.41287E-03  5196   0.386E-01    0.723E-02
DAV:   4    -0.617455845485E+02    0.23146E-03   -0.94350E-04  5328   0.177E-01    0.300E-02
DAV:   5    -0.617455774043E+02    0.71442E-05   -0.31811E-05  5400   0.396E-02    0.155E-02
DAV:   6    -0.617455759405E+02    0.14638E-05   -0.15006E-05  5532   0.266E-02    0.332E-03
DAV:   7    -0.617455764399E+02   -0.49936E-06   -0.16567E-06  5268   0.888E-03    0.179E-03
DAV:   8    -0.617455766390E+02   -0.19914E-06   -0.22544E-07  5252   0.345E-03    0.771E-04
DAV:   9    -0.617455766957E+02   -0.56699E-07   -0.52522E-08  4688   0.168E-03    0.239E-04
DAV:  10    -0.617455767038E+02   -0.81570E-08   -0.53829E-09  3412   0.601E-04
  19 F= -.61745577E+02 E0= -.61707129E+02  d E =-.101201E-02
 curvature:  -6.10 expect dE=-0.121E-01 dE for cont linesearch -0.300E-07
 trial: gam= 0.81073 g(F)=  0.172E-02 g(S)=  0.266E-03 ort = 0.132E-04 (trialstep = 0.265E+00)
 search vector abs. value=  0.252E-01
 bond charge predicted
       N       E                     dE             d eps       ncg     rms          rms(c)
DAV:   1    -0.617485826416E+02   -0.30059E-02   -0.10651E-01  4480   0.216E+00    0.220E-01
DAV:   2    -0.617466594481E+02    0.19232E-02   -0.29665E-03  5104   0.327E-01    0.104E-01
DAV:   3    -0.617460683123E+02    0.59114E-03   -0.16701E-03  5288   0.243E-01    0.385E-02
DAV:   4    -0.617460127172E+02    0.55595E-04   -0.24100E-04  5344   0.940E-02    0.192E-02
DAV:   5    -0.617460102041E+02    0.25132E-05   -0.14342E-05  5392   0.259E-02    0.940E-03
DAV:   6    -0.617460102418E+02   -0.37685E-07   -0.50904E-06  5548   0.155E-02    0.209E-03
DAV:   7    -0.617460104870E+02   -0.24522E-06   -0.65395E-07  5396   0.560E-03    0.118E-03
DAV:   8    -0.617460106100E+02   -0.12300E-06   -0.10742E-07  5232   0.229E-03    0.490E-04
DAV:   9    -0.617460106146E+02   -0.46675E-08   -0.14080E-08  3600   0.864E-04
  20 F= -.61746011E+02 E0= -.61707792E+02  d E =-.433911E-03
 trial-energy change:   -0.000434  1 .order   -0.000438   -0.000529   -0.000347
 step:   0.7677(harm=  0.7677)  dis= 0.00222  next Energy=   -61.746343 (dE=-0.766E-03)
 bond charge predicted
       N       E                     dE             d eps       ncg     rms          rms(c)
DAV:   1    -0.617555996602E+02   -0.95891E-02   -0.38540E-01  4480   0.411E+00    0.418E-01
DAV:   2    -0.617486642963E+02    0.69354E-02   -0.10754E-02  5104   0.620E-01    0.198E-01
DAV:   3    -0.617465278867E+02    0.21364E-02   -0.60313E-03  5292   0.461E-01    0.717E-02
DAV:   4    -0.617463376252E+02    0.19026E-03   -0.83686E-04  5344   0.176E-01    0.363E-02
DAV:   5    -0.617463278193E+02    0.98059E-05   -0.50640E-05  5388   0.486E-02    0.177E-02
DAV:   6    -0.617463274327E+02    0.38662E-06   -0.17965E-05  5564   0.290E-02    0.392E-03
DAV:   7    -0.617463282747E+02   -0.84197E-06   -0.22822E-06  5368   0.105E-02    0.221E-03
DAV:   8    -0.617463286793E+02   -0.40464E-06   -0.38411E-07  5244   0.430E-03    0.915E-04
DAV:   9    -0.617463287061E+02   -0.26784E-07   -0.52254E-08  4764   0.160E-03    0.320E-04
DAV:  10    -0.617463287049E+02    0.12037E-08   -0.87501E-09  3484   0.747E-04
  21 F= -.61746329E+02 E0= -.61708539E+02  d E =-.752001E-03
 curvature:  -4.84 expect dE=-0.715E-02 dE for cont linesearch -0.226E-06
 trial: gam= 0.73311 g(F)=  0.121E-02 g(S)=  0.264E-03 ort =-0.343E-04 (trialstep = 0.366E+00)
 search vector abs. value=  0.150E-01
 bond charge predicted
       N       E                     dE             d eps       ncg     rms          rms(c)
DAV:   1    -0.617488902983E+02   -0.25616E-02   -0.11590E-01  4488   0.232E+00    0.210E-01
DAV:   2    -0.617471201125E+02    0.17702E-02   -0.29243E-03  5252   0.349E-01    0.106E-01
DAV:   3    -0.617465242364E+02    0.59588E-03   -0.19258E-03  5192   0.245E-01    0.235E-02
DAV:   4    -0.617465157667E+02    0.84697E-05   -0.68473E-05  5372   0.553E-02    0.149E-02
DAV:   5    -0.617465138579E+02    0.19088E-05   -0.74260E-06  5456   0.189E-02    0.757E-03
DAV:   6    -0.617465142269E+02   -0.36905E-06   -0.46176E-06  5992   0.138E-02    0.220E-03
DAV:   7    -0.617465144642E+02   -0.23730E-06   -0.37241E-07  5356   0.427E-03    0.925E-04
DAV:   8    -0.617465145442E+02   -0.79982E-07   -0.91342E-08  5348   0.216E-03    0.371E-04
DAV:   9    -0.617465145582E+02   -0.13970E-07   -0.19109E-08  4184   0.103E-03    0.149E-04
DAV:  10    -0.617465145552E+02    0.30386E-08   -0.23241E-09  3008   0.384E-04
  22 F= -.61746515E+02 E0= -.61708952E+02  d E =-.185850E-03
 trial-energy change:   -0.000186  1 .order   -0.000185   -0.000531    0.000162
 step:   0.2809(harm=  0.2802)  dis= 0.00120  next Energy=   -61.746533 (dE=-0.205E-03)
 bond charge predicted
       N       E                     dE             d eps       ncg     rms          rms(c)
DAV:   1    -0.617466623182E+02   -0.14776E-03   -0.62399E-03  4488   0.537E-01    0.486E-02
DAV:   2    -0.617465669801E+02    0.95338E-04   -0.15723E-04  5236   0.810E-02    0.246E-02
DAV:   3    -0.617465342605E+02    0.32720E-04   -0.10434E-04  5176   0.569E-02    0.549E-03
DAV:   4    -0.617465335900E+02    0.67049E-06   -0.37601E-06  5372   0.129E-02    0.347E-03
DAV:   5    -0.617465333786E+02    0.21146E-06   -0.40331E-07  5428   0.442E-03    0.177E-03
DAV:   6    -0.617465332888E+02    0.89826E-07   -0.25394E-07  6016   0.322E-03    0.514E-04
DAV:   7    -0.617465332928E+02   -0.39993E-08   -0.17886E-08  3420   0.100E-03
  23 F= -.61746533E+02 E0= -.61708919E+02  d E =-.204588E-03
 curvature:  -1.44 expect dE=-0.880E-03 dE for cont linesearch -0.284E-08
 trial: gam= 0.38618 g(F)=  0.545E-03 g(S)=  0.660E-04 ort =-0.543E-05 (trialstep = 0.349E+00)
 search vector abs. value=  0.284E-02
 bond charge predicted
       N       E                     dE             d eps       ncg     rms          rms(c)
DAV:   1    -0.617470928687E+02   -0.55958E-03   -0.20308E-02  4480   0.992E-01    0.878E-02
DAV:   2    -0.617467967108E+02    0.29616E-03   -0.54200E-04  5312   0.148E-01    0.428E-02
DAV:   3    -0.617467070414E+02    0.89669E-04   -0.27458E-04  5228   0.984E-02    0.137E-02
DAV:   4    -0.617467004958E+02    0.65456E-05   -0.32866E-05  5340   0.349E-02    0.671E-03
DAV:   5    -0.617467003096E+02    0.18619E-06   -0.16551E-06  5352   0.908E-03    0.352E-03
DAV:   6    -0.617467004621E+02   -0.15249E-06   -0.84160E-07  5704   0.621E-03    0.766E-04
DAV:   7    -0.617467004993E+02   -0.37232E-07   -0.91554E-08  5308   0.212E-03    0.437E-04
DAV:   8    -0.617467005205E+02   -0.21173E-07   -0.11999E-08  3632   0.836E-04    0.177E-04
DAV:   9    -0.617467005210E+02   -0.49704E-09   -0.40597E-09  3116   0.495E-04
  24 F= -.61746701E+02 E0= -.61708985E+02  d E =-.167228E-03
 trial-energy change:   -0.000167  1 .order   -0.000167   -0.000212   -0.000121
 step:   0.7876(harm=  0.8152)  dis= 0.00203  next Energy=   -61.746778 (dE=-0.244E-03)
 bond charge predicted
       N       E                     dE             d eps       ncg     rms          rms(c)
DAV:   1    -0.617474037622E+02   -0.70324E-03   -0.32211E-02  4480   0.125E+00    0.111E-01
DAV:   2    -0.617469339244E+02    0.46984E-03   -0.85958E-04  5316   0.186E-01    0.538E-02
DAV:   3    -0.617467914015E+02    0.14252E-03   -0.43596E-04  5220   0.124E-01    0.171E-02
DAV:   4    -0.617467810405E+02    0.10361E-04   -0.51849E-05  5340   0.439E-02    0.845E-03
DAV:   5    -0.617467806848E+02    0.35565E-06   -0.26183E-06  5352   0.114E-02    0.443E-03
DAV:   6    -0.617467808643E+02   -0.17944E-06   -0.13367E-06  5720   0.782E-03    0.965E-04
DAV:   7    -0.617467809193E+02   -0.55020E-07   -0.14510E-07  5440   0.267E-03    0.550E-04
DAV:   8    -0.617467809501E+02   -0.30777E-07   -0.19571E-08  4220   0.105E-03    0.225E-04
DAV:   9    -0.617467809516E+02   -0.15700E-08   -0.58121E-09  3280   0.589E-04
  25 F= -.61746781E+02 E0= -.61708943E+02  d E =-.247659E-03
 curvature:  -1.89 expect dE=-0.942E-03 dE for cont linesearch -0.204E-06
 trial: gam= 0.79690 g(F)=  0.351E-03 g(S)=  0.147E-03 ort = 0.175E-04 (trialstep = 0.437E+00)
 search vector abs. value=  0.233E-02
 bond charge predicted
       N       E                     dE             d eps       ncg     rms          rms(c)
DAV:   1    -0.617473736831E+02   -0.59273E-03   -0.27022E-02  4480   0.115E+00    0.925E-02
DAV:   2    -0.617470546944E+02    0.31899E-03   -0.60484E-04  5364   0.156E-01    0.452E-02
DAV:   3    -0.617469495804E+02    0.10511E-03   -0.29341E-04  5288   0.102E-01    0.155E-02
DAV:   4    -0.617469418050E+02    0.77754E-05   -0.36846E-05  5340   0.368E-02    0.774E-03
DAV:   5    -0.617469415793E+02    0.22571E-06   -0.25107E-06  5336   0.108E-02    0.365E-03
DAV:   6    -0.617469416466E+02   -0.67387E-07   -0.73278E-07  5780   0.597E-03    0.929E-04
DAV:   7    -0.617469417072E+02   -0.60558E-07   -0.98905E-08  5304   0.221E-03    0.523E-04
DAV:   8    -0.617469417248E+02   -0.17588E-07   -0.21969E-08  4524   0.106E-03    0.197E-04
DAV:   9    -0.617469417259E+02   -0.11419E-08   -0.39617E-09  3160   0.504E-04
  26 F= -.61746942E+02 E0= -.61708939E+02  d E =-.160774E-03
 trial-energy change:   -0.000161  1 .order   -0.000162   -0.000223   -0.000101
 step:   0.8661(harm=  0.7993)  dis= 0.00242  next Energy=   -61.746990 (dE=-0.209E-03)
 bond charge predicted
       N       E                     dE             d eps       ncg     rms          rms(c)
DAV:   1    -0.617474008668E+02   -0.45914E-03   -0.26201E-02  4480   0.113E+00    0.911E-02
DAV:   2    -0.617470910058E+02    0.30986E-03   -0.58700E-04  5364   0.154E-01    0.445E-02
DAV:   3    -0.617469889481E+02    0.10206E-03   -0.28455E-04  5292   0.100E-01    0.153E-02
DAV:   4    -0.617469813885E+02    0.75596E-05   -0.35916E-05  5340   0.363E-02    0.762E-03
DAV:   5    -0.617469811720E+02    0.21644E-06   -0.24384E-06  5336   0.107E-02    0.359E-03
DAV:   6    -0.617469812382E+02   -0.66132E-07   -0.70996E-07  5792   0.587E-03    0.913E-04
DAV:   7    -0.617469812969E+02   -0.58696E-07   -0.95619E-08  5304   0.217E-03    0.514E-04
DAV:   8    -0.617469813138E+02   -0.16944E-07   -0.21184E-08  4508   0.104E-03    0.193E-04
DAV:   9    -0.617469813148E+02   -0.99544E-09   -0.38650E-09  3160   0.497E-04
  27 F= -.61746981E+02 E0= -.61708822E+02  d E =-.200363E-03
 curvature:  -1.76 expect dE=-0.776E-03 dE for cont linesearch -0.127E-05
 trial: gam= 1.02636 g(F)=  0.432E-03 g(S)=  0.940E-05 ort =-0.410E-04 (trialstep = 0.433E+00)
 search vector abs. value=  0.281E-02
 bond charge predicted
       N       E                     dE             d eps       ncg     rms          rms(c)
DAV:   1    -0.617475552310E+02   -0.57392E-03   -0.32447E-02  4480   0.127E+00    0.100E-01
DAV:   2    -0.617472069448E+02    0.34829E-03   -0.79408E-04  5320   0.173E-01    0.477E-02
DAV:   3    -0.617470986369E+02    0.10831E-03   -0.27754E-04  5524   0.104E-01    0.219E-02
DAV:   4    -0.617470792034E+02    0.19434E-04   -0.91004E-05  5316   0.545E-02    0.874E-03
DAV:   5    -0.617470788451E+02    0.35833E-06   -0.43883E-06  5836   0.139E-02    0.425E-03
DAV:   6    -0.617470789003E+02   -0.55221E-07   -0.10292E-06  5352   0.722E-03    0.117E-03
DAV:   7    -0.617470789804E+02   -0.80112E-07   -0.12821E-07  6140   0.246E-03    0.651E-04
DAV:   8    -0.617470790024E+02   -0.21965E-07   -0.28458E-08  4480   0.122E-03    0.219E-04
DAV:   9    -0.617470790068E+02   -0.43945E-08   -0.52586E-09  3232   0.563E-04
  28 F= -.61747079E+02 E0= -.61708742E+02  d E =-.976919E-04
 trial-energy change:   -0.000098  1 .order   -0.000099   -0.000173   -0.000025
 step:   0.5104(harm=  0.5056)  dis= 0.00131  next Energy=   -61.747081 (dE=-0.999E-04)
 bond charge predicted
       N       E                     dE             d eps       ncg     rms          rms(c)
DAV:   1    -0.617470963103E+02   -0.17308E-04   -0.10428E-03  4488   0.227E-01    0.180E-02
DAV:   2    -0.617470848942E+02    0.11416E-04   -0.25531E-05  5320   0.311E-02    0.856E-03
DAV:   3    -0.617470814164E+02    0.34778E-05   -0.89253E-06  5536   0.186E-02    0.393E-03
DAV:   4    -0.617470808047E+02    0.61176E-06   -0.29433E-06  5316   0.980E-03    0.157E-03
DAV:   5    -0.617470808220E+02   -0.17358E-07   -0.14105E-07  5796   0.250E-03    0.764E-04
DAV:   6    -0.617470808413E+02   -0.19327E-07   -0.31335E-08  4148   0.130E-03    0.204E-04
DAV:   7    -0.617470808484E+02   -0.71029E-08   -0.54638E-09  2960   0.535E-04
  29 F= -.61747081E+02 E0= -.61708713E+02  d E =-.995336E-04
 curvature:  -1.77 expect dE=-0.428E-03 dE for cont linesearch -0.671E-08
 trial: gam= 0.38559 g(F)=  0.180E-03 g(S)=  0.620E-04 ort =-0.326E-05 (trialstep = 0.448E+00)
 search vector abs. value=  0.657E-03
 bond charge predicted
       N       E                     dE             d eps       ncg     rms          rms(c)
DAV:   1    -0.617472131771E+02   -0.13234E-03   -0.90157E-03  4488   0.698E-01    0.420E-02
DAV:   2    -0.617471630951E+02    0.50082E-04   -0.19686E-04  5364   0.917E-02    0.210E-02
DAV:   3    -0.617471480499E+02    0.15045E-04   -0.42034E-05  5404   0.400E-02    0.903E-03
DAV:   4    -0.617471458848E+02    0.21651E-05   -0.10667E-05  5344   0.186E-02    0.309E-03
DAV:   5    -0.617471459721E+02   -0.87312E-07   -0.41641E-07  5428   0.448E-03    0.171E-03
DAV:   6    -0.617471460748E+02   -0.10272E-06   -0.92106E-08  5588   0.222E-03    0.475E-04
DAV:   7    -0.617471461104E+02   -0.35535E-07   -0.13720E-08  3360   0.912E-04    0.179E-04
DAV:   8    -0.617471461179E+02   -0.75668E-08   -0.37668E-09  3028   0.475E-04
  30 F= -.61747146E+02 E0= -.61708776E+02  d E =-.652695E-04
 trial-energy change:   -0.000065  1 .order   -0.000064   -0.000108   -0.000020
 step:   0.5420(harm=  0.5517)  dis= 0.00098  next Energy=   -61.747148 (dE=-0.674E-04)
 bond charge predicted
       N       E                     dE             d eps       ncg     rms          rms(c)
DAV:   1    -0.617471513155E+02   -0.52051E-05   -0.39375E-04  4488   0.146E-01    0.877E-03
DAV:   2    -0.617471491387E+02    0.21768E-05   -0.86000E-06  5380   0.192E-02    0.439E-03
DAV:   3    -0.617471485457E+02    0.59303E-06   -0.18324E-06  5408   0.836E-03    0.189E-03
DAV:   4    -0.617471484932E+02    0.52456E-07   -0.46818E-07  5344   0.389E-03    0.645E-04
DAV:   5    -0.617471485180E+02   -0.24761E-07   -0.15665E-08  3448   0.935E-04    0.358E-04
DAV:   6    -0.617471485433E+02   -0.25323E-07   -0.60194E-09  2992   0.582E-04    0.850E-05
DAV:   7    -0.617471485476E+02   -0.43119E-08   -0.10754E-09  2720   0.249E-04
  31 F= -.61747149E+02 E0= -.61708778E+02  d E =-.676992E-04
 curvature:  -0.75 expect dE=-0.218E-03 dE for cont linesearch -0.190E-07
 trial: gam= 1.20728 g(F)=  0.253E-03 g(S)=  0.387E-04 ort = 0.408E-05 (trialstep = 0.244E+00)
 search vector abs. value=  0.126E-02
 bond charge predicted
       N       E                     dE             d eps       ncg     rms          rms(c)
DAV:   1    -0.617472505357E+02   -0.10199E-03   -0.58408E-03  4480   0.566E-01    0.349E-02
DAV:   2    -0.617472156847E+02    0.34851E-04   -0.15497E-04  5512   0.795E-02    0.168E-02
DAV:   3    -0.617472073436E+02    0.83411E-05   -0.27414E-05  5556   0.344E-02    0.883E-03
DAV:   4    -0.617472052771E+02    0.20665E-05   -0.99193E-06  5336   0.183E-02    0.302E-03
DAV:   5    -0.617472052984E+02   -0.21330E-07   -0.30768E-07  5700   0.411E-03    0.159E-03
DAV:   6    -0.617472053506E+02   -0.52192E-07   -0.89903E-08  5356   0.204E-03    0.436E-04
DAV:   7    -0.617472053671E+02   -0.16459E-07   -0.84306E-09  3296   0.727E-04    0.146E-04
DAV:   8    -0.617472053710E+02   -0.39590E-08   -0.32853E-09  2976   0.414E-04
  32 F= -.61747205E+02 E0= -.61708852E+02  d E =-.568234E-04
 trial-energy change:   -0.000057  1 .order   -0.000057   -0.000072   -0.000042
 step:   0.5982(harm=  0.5752)  dis= 0.00174  next Energy=   -61.747235 (dE=-0.867E-04)
 bond charge predicted
       N       E                     dE             d eps       ncg     rms          rms(c)
DAV:   1    -0.617473288981E+02   -0.12353E-03   -0.12362E-02  4480   0.824E-01    0.508E-02
DAV:   2    -0.617472553532E+02    0.73545E-04   -0.32814E-04  5512   0.116E-01    0.244E-02
DAV:   3    -0.617472376076E+02    0.17746E-04   -0.58030E-05  5560   0.501E-02    0.128E-02
DAV:   4    -0.617472331590E+02    0.44486E-05   -0.20976E-05  5336   0.266E-02    0.439E-03
DAV:   5    -0.617472331486E+02    0.10405E-07   -0.65147E-07  5700   0.597E-03    0.232E-03
DAV:   6    -0.617472332215E+02   -0.72897E-07   -0.18989E-07  5348   0.297E-03    0.634E-04
DAV:   7    -0.617472332481E+02   -0.26669E-07   -0.17836E-08  3404   0.106E-03    0.213E-04
DAV:   8    -0.617472332549E+02   -0.68010E-08   -0.69413E-09  3200   0.602E-04
  33 F= -.61747233E+02 E0= -.61708904E+02  d E =-.847073E-04
 curvature:  -1.22 expect dE=-0.268E-03 dE for cont linesearch -0.143E-06
 trial: gam= 0.84484 g(F)=  0.198E-03 g(S)=  0.227E-04 ort =-0.122E-04 (trialstep = 0.315E+00)
 search vector abs. value=  0.110E-02
 bond charge predicted
       N       E                     dE             d eps       ncg     rms          rms(c)
DAV:   1    -0.617473181027E+02   -0.84855E-04   -0.90794E-03  4480   0.711E-01    0.349E-02
DAV:   2    -0.617472883200E+02    0.29783E-04   -0.17600E-04  6204   0.868E-02    0.180E-02
DAV:   3    -0.617472786292E+02    0.96908E-05   -0.24673E-05  5404   0.313E-02    0.811E-03
DAV:   4    -0.617472769771E+02    0.16521E-05   -0.59224E-06  5324   0.139E-02    0.284E-03
DAV:   5    -0.617472769442E+02    0.32877E-07   -0.35621E-07  5764   0.404E-03    0.150E-03
DAV:   6    -0.617472769732E+02   -0.28991E-07   -0.11631E-07  5412   0.226E-03    0.395E-04
DAV:   7    -0.617472769780E+02   -0.48153E-08   -0.12977E-08  3292   0.840E-04
  34 F= -.61747277E+02 E0= -.61709033E+02  d E =-.437231E-04
 trial-energy change:   -0.000044  1 .order   -0.000044   -0.000066   -0.000022
 step:   0.4877(harm=  0.4733)  dis= 0.00133  next Energy=   -61.747283 (dE=-0.498E-04)
 bond charge predicted
       N       E                     dE             d eps       ncg     rms          rms(c)
DAV:   1    -0.617472948588E+02   -0.17886E-04   -0.27476E-03  4488   0.391E-01    0.192E-02
DAV:   2    -0.617472857135E+02    0.91453E-05   -0.53296E-05  6204   0.478E-02    0.991E-03
DAV:   3    -0.617472827800E+02    0.29335E-05   -0.74874E-06  5368   0.173E-02    0.445E-03
DAV:   4    -0.617472822896E+02    0.49047E-06   -0.17914E-06  5324   0.765E-03    0.156E-03
DAV:   5    -0.617472822902E+02   -0.67530E-09   -0.10785E-07  5704   0.223E-03    0.826E-04
DAV:   6    -0.617472823060E+02   -0.15752E-07   -0.33142E-08  4300   0.125E-03    0.210E-04
DAV:   7    -0.617472823089E+02   -0.29411E-08   -0.52797E-09  2948   0.536E-04
  35 F= -.61747282E+02 E0= -.61709085E+02  d E =-.490540E-04
 curvature:  -1.23 expect dE=-0.134E-03 dE for cont linesearch -0.456E-07
 trial: gam= 0.43193 g(F)=  0.999E-04 g(S)=  0.936E-05 ort =-0.639E-05 (trialstep = 0.349E+00)
 search vector abs. value=  0.309E-03
 bond charge predicted
       N       E                     dE             d eps       ncg     rms          rms(c)
DAV:   1    -0.617473158679E+02   -0.33562E-04   -0.33054E-03  4480   0.436E-01    0.205E-02
DAV:   2    -0.617473068423E+02    0.90256E-05   -0.77311E-05  5412   0.603E-02    0.100E-02
DAV:   3    -0.617473044856E+02    0.23567E-05   -0.99235E-06  5772   0.215E-02    0.571E-03
DAV:   4    -0.617473036712E+02    0.81431E-06   -0.24590E-06  5304   0.945E-03    0.215E-03
DAV:   5    -0.617473036002E+02    0.71053E-07   -0.21159E-07  6008   0.308E-03    0.930E-04
DAV:   6    -0.617473035952E+02    0.49997E-08   -0.40437E-08  5224   0.135E-03
  36 F= -.61747304E+02 E0= -.61709150E+02  d E =-.212863E-04
 trial-energy change:   -0.000021  1 .order   -0.000022   -0.000037   -0.000006
 step:   0.4273(harm=  0.4194)  dis= 0.00037  next Energy=   -61.747304 (dE=-0.220E-04)
 bond charge predicted
       N       E                     dE             d eps       ncg     rms          rms(c)
DAV:   1    -0.617473048244E+02   -0.12242E-05   -0.16578E-04  4488   0.977E-02    0.457E-03
DAV:   2    -0.617473043161E+02    0.50830E-06   -0.38494E-06  5408   0.135E-02    0.225E-03
DAV:   3    -0.617473041864E+02    0.12970E-06   -0.49693E-07  5780   0.480E-03    0.127E-03
DAV:   4    -0.617473041358E+02    0.50652E-07   -0.12404E-07  5296   0.212E-03    0.482E-04
DAV:   5    -0.617473041304E+02    0.53915E-08   -0.91880E-09  3216   0.698E-04
  37 F= -.61747304E+02 E0= -.61709160E+02  d E =-.218215E-04
 curvature:  -0.60 expect dE=-0.137E-04 dE for cont linesearch -0.467E-08
 trial: gam= 0.20392 g(F)=  0.155E-04 g(S)=  0.741E-05 ort =-0.155E-05 (trialstep = 0.365E+00)
 search vector abs. value=  0.351E-04
 bond charge predicted
       N       E                     dE             d eps       ncg     rms          rms(c)
DAV:   1    -0.617473113163E+02   -0.71805E-05   -0.40011E-04  4480   0.149E-01    0.680E-03
DAV:   2    -0.617473103106E+02    0.10057E-05   -0.10310E-05  5424   0.225E-02    0.332E-03
DAV:   3    -0.617473102937E+02    0.16939E-07   -0.94082E-07  5324   0.669E-03    0.182E-03
DAV:   4    -0.617473103122E+02   -0.18541E-07   -0.12327E-07  5692   0.240E-03    0.829E-04
DAV:   5    -0.617473103387E+02   -0.26523E-07   -0.30183E-08  4100   0.119E-03    0.260E-04
DAV:   6    -0.617473103489E+02   -0.10109E-07   -0.56361E-09  2908   0.535E-04    0.128E-04
DAV:   7    -0.617473103528E+02   -0.39540E-08   -0.14868E-09  2684   0.299E-04
  38 F= -.61747310E+02 E0= -.61709172E+02  d E =-.622243E-05
 trial-energy change:   -0.000006  1 .order   -0.000006   -0.000008   -0.000004
 step:   0.5592(harm=  0.6617)  dis= 0.00037  next Energy=   -61.747311 (dE=-0.725E-05)
 bond charge predicted
       N       E                     dE             d eps       ncg     rms          rms(c)
DAV:   1    -0.617473120224E+02   -0.16735E-05   -0.11354E-04  4480   0.795E-02    0.362E-03
DAV:   2    -0.617473117656E+02    0.25676E-06   -0.29302E-06  5424   0.120E-02    0.177E-03
DAV:   3    -0.617473117784E+02   -0.12805E-07   -0.26752E-07  5332   0.356E-03    0.973E-04
DAV:   4    -0.617473117972E+02   -0.18755E-07   -0.33853E-08  4868   0.128E-03    0.443E-04
DAV:   5    -0.617473118131E+02   -0.15933E-07   -0.89698E-09  2968   0.667E-04    0.135E-04
DAV:   6    -0.617473118187E+02   -0.56007E-08   -0.20161E-09  2696   0.326E-04
  39 F= -.61747312E+02 E0= -.61709176E+02  d E =-.768832E-05
 curvature:  -0.45 expect dE=-0.855E-05 dE for cont linesearch -0.160E-06
 trial: gam= 0.65749 g(F)=  0.180E-04 g(S)=  0.905E-06 ort = 0.352E-05 (trialstep = 0.366E+00)
 search vector abs. value=  0.387E-04
 bond charge predicted
       N       E                     dE             d eps       ncg     rms          rms(c)
DAV:   1    -0.617473173206E+02   -0.55075E-05   -0.50849E-04  4480   0.171E-01    0.648E-03
DAV:   2    -0.617473167982E+02    0.52237E-06   -0.10643E-05  5624   0.229E-02    0.342E-03
DAV:   3    -0.617473167088E+02    0.89400E-07   -0.10453E-06  5744   0.724E-03    0.200E-03
DAV:   4    -0.617473166957E+02    0.13081E-07   -0.16246E-07  5320   0.275E-03    0.102E-03
DAV:   5    -0.617473167066E+02   -0.10846E-07   -0.20271E-08  3432   0.102E-03    0.314E-04
DAV:   6    -0.617473167113E+02   -0.47576E-08   -0.46532E-09  2944   0.512E-04
  40 F= -.61747317E+02 E0= -.61709193E+02  d E =-.489262E-05
 trial-energy change:   -0.000005  1 .order   -0.000005   -0.000008   -0.000002
 step:   0.4793(harm=  0.4871)  dis= 0.00035  next Energy=   -61.747317 (dE=-0.519E-05)
 bond charge predicted
       N       E                     dE             d eps       ncg     rms          rms(c)
DAV:   1    -0.617473170878E+02   -0.38121E-06   -0.48496E-05  4480   0.528E-02    0.200E-03
DAV:   2    -0.617473170360E+02    0.51816E-07   -0.10116E-06  5624   0.705E-03    0.106E-03
DAV:   3    -0.617473170342E+02    0.17951E-08   -0.98890E-08  5560   0.223E-03
  41 F= -.61747317E+02 E0= -.61709197E+02  d E =-.521546E-05
 curvature:  -0.44 expect dE=-0.626E-05 dE for cont linesearch -0.277E-08
 trial: gam= 0.92123 g(F)=  0.134E-04 g(S)=  0.708E-06 ort = 0.492E-06 (trialstep = 0.314E+00)
 search vector abs. value=  0.479E-04
 bond charge predicted
       N       E                     dE             d eps       ncg     rms          rms(c)
DAV:   1    -0.617473203102E+02   -0.32743E-05   -0.45090E-04  4480   0.160E-01    0.519E-03
DAV:   2    -0.617473202420E+02    0.68210E-07   -0.65540E-06  5704   0.177E-02    0.289E-03
DAV:   3    -0.617473201775E+02    0.64478E-07   -0.54791E-07  5396   0.515E-03    0.142E-03
DAV:   4    -0.617473201747E+02    0.28274E-08   -0.89425E-08  5452   0.197E-03
  42 F= -.61747320E+02 E0= -.61709224E+02  d E =-.314056E-05
 trial-energy change:   -0.000003  1 .order   -0.000003   -0.000005   -0.000001
 step:   0.4265(harm=  0.4608)  dis= 0.00037  next Energy=   -61.747320 (dE=-0.341E-05)
 bond charge predicted
       N       E                     dE             d eps       ncg     rms          rms(c)
DAV:   1    -0.617473205199E+02   -0.34239E-06   -0.57470E-05  4496   0.572E-02    0.192E-03
DAV:   2    -0.617473205234E+02   -0.35047E-08   -0.83614E-07  5744   0.630E-03    0.107E-03
DAV:   3    -0.617473205243E+02   -0.85424E-09   -0.68653E-08  5340   0.183E-03
  43 F= -.61747321E+02 E0= -.61709234E+02  d E =-.349014E-05
 curvature:  -0.71 expect dE=-0.394E-05 dE for cont linesearch -0.138E-07
 trial: gam= 0.24440 g(F)=  0.409E-05 g(S)=  0.143E-05 ort = 0.962E-06 (trialstep = 0.337E+00)
 search vector abs. value=  0.885E-05
 bond charge predicted
       N       E                     dE             d eps       ncg     rms          rms(c)
DAV:   1    -0.617473219363E+02   -0.14129E-05   -0.87059E-05  4492   0.702E-02    0.292E-03
DAV:   2    -0.617473217930E+02    0.14334E-06   -0.16429E-06  5556   0.921E-03    0.164E-03
DAV:   3    -0.617473217091E+02    0.83819E-07   -0.21230E-07  5340   0.304E-03    0.624E-04
DAV:   4    -0.617473216854E+02    0.23752E-07   -0.23837E-08  4256   0.105E-03    0.243E-04
DAV:   5    -0.617473216765E+02    0.89269E-08   -0.41440E-09  2816   0.459E-04
  44 F= -.61747322E+02 E0= -.61709238E+02  d E =-.115218E-05
 trial-energy change:   -0.000001  1 .order   -0.000001   -0.000002   -0.000000
 step:   0.4365(harm=  0.4365)  dis= 0.00011  next Energy=   -61.747322 (dE=-0.126E-05)
 bond charge predicted
       N       E                     dE             d eps       ncg     rms          rms(c)
DAV:   1    -0.617473217635E+02   -0.78057E-07   -0.76828E-06  4540   0.209E-02    0.846E-04
DAV:   2    -0.617473217505E+02    0.12983E-07   -0.14315E-07  5572   0.271E-03    0.475E-04
DAV:   3    -0.617473217378E+02    0.12635E-07   -0.15667E-08  3332   0.879E-04    0.186E-04
DAV:   4    -0.617473217305E+02    0.72882E-08   -0.35860E-09  2596   0.433E-04
  45 F= -.61747322E+02 E0= -.61709239E+02  d E =-.120626E-05
 curvature:  -0.34 expect dE=-0.610E-06 dE for cont linesearch -0.336E-10
 trial: gam= 0.36697 g(F)=  0.124E-05 g(S)=  0.579E-06 ort = 0.298E-07 (trialstep = 0.357E+00)
 search vector abs. value=  0.303E-05
 bond charge predicted
       N       E                     dE             d eps       ncg     rms          rms(c)
DAV:   1    -0.617473224260E+02   -0.68816E-06   -0.27643E-05  4484   0.395E-02    0.220E-03
DAV:   2    -0.617473222722E+02    0.15379E-06   -0.50666E-07  5436   0.506E-03    0.125E-03
DAV:   3    -0.617473221825E+02    0.89679E-07   -0.21545E-07  5196   0.266E-03    0.253E-04
DAV:   4    -0.617473221707E+02    0.11779E-07   -0.63125E-09  2960   0.607E-04    0.158E-04
DAV:   5    -0.617473221620E+02    0.87864E-08   -0.17098E-09  2488   0.292E-04
  46 F= -.61747322E+02 E0= -.61709244E+02  d E =-.431413E-06
 trial-energy change:   -0.000000  1 .order   -0.000000   -0.000001   -0.000000
 step:   0.6695(harm=  0.6695)  dis= 0.00008  next Energy=   -61.747322 (dE=-0.613E-06)
 bond charge predicted
       N       E                     dE             d eps       ncg     rms          rms(c)
DAV:   1    -0.617473224684E+02   -0.29762E-06   -0.21329E-05  4480   0.347E-02    0.193E-03
DAV:   2    -0.617473223478E+02    0.12060E-06   -0.38999E-07  5412   0.445E-03    0.110E-03
DAV:   3    -0.617473222747E+02    0.73036E-07   -0.16704E-07  5208   0.234E-03    0.225E-04
DAV:   4    -0.617473222644E+02    0.10373E-07   -0.48862E-09  2852   0.534E-04    0.140E-04
DAV:   5    -0.617473222566E+02    0.77459E-08   -0.13403E-09  2464   0.258E-04
  47 F= -.61747322E+02 E0= -.61709248E+02  d E =-.526067E-06
 curvature:  -0.55 expect dE=-0.140E-05 dE for cont linesearch -0.211E-10
 trial: gam= 1.36984 g(F)=  0.137E-05 g(S)=  0.114E-05 ort = 0.107E-07 (trialstep = 0.154E+00)
 search vector abs. value=  0.823E-05
 bond charge predicted
       N       E                     dE             d eps       ncg     rms          rms(c)
DAV:   1    -0.617473227939E+02   -0.52955E-06   -0.14532E-05  4480   0.276E-02    0.197E-03
DAV:   2    -0.617473226875E+02    0.10640E-06   -0.33551E-07  5372   0.372E-03    0.979E-04
DAV:   3    -0.617473226412E+02    0.46273E-07   -0.13032E-07  5436   0.217E-03    0.379E-04
DAV:   4    -0.617473226333E+02    0.79333E-08   -0.21970E-08  3336   0.925E-04
  48 F= -.61747323E+02 E0= -.61709250E+02  d E =-.376690E-06
 ZBRENT: can't locate minimum, use default step
 trial-energy change:   -0.000000  1 .order   -0.000000   -0.000000   -0.000000
 step:   0.6175(harm=  0.6509)  dis= 0.00015  next Energy=   -61.747323 (dE=-0.823E-06)
 bond charge predicted
       N       E                     dE             d eps       ncg     rms          rms(c)
DAV:   1    -0.617473247948E+02   -0.21536E-05   -0.13087E-04  4480   0.827E-02    0.592E-03
DAV:   2    -0.617473236565E+02    0.11384E-05   -0.30136E-06  5364   0.112E-02    0.295E-03
DAV:   3    -0.617473232456E+02    0.41088E-06   -0.11927E-06  5420   0.657E-03    0.113E-03
DAV:   4    -0.617473231931E+02    0.52517E-07   -0.21007E-07  5336   0.276E-03    0.529E-04
DAV:   5    -0.617473231799E+02    0.13210E-07   -0.13759E-08  3412   0.837E-04    0.238E-04
DAV:   6    -0.617473231729E+02    0.69940E-08   -0.36802E-09  2900   0.464E-04
  49 F= -.61747323E+02 E0= -.61709257E+02  d E =-.916265E-06
 curvature:  -1.05 expect dE=-0.417E-05 dE for cont linesearch -0.471E-09
 trial: gam= 1.56855 g(F)=  0.328E-05 g(S)=  0.677E-06 ort = 0.606E-07 (trialstep = 0.833E-01)
 search vector abs. value=  0.244E-04
 bond charge predicted
       N       E                     dE             d eps       ncg     rms          rms(c)
DAV:   1    -0.617473236668E+02   -0.48692E-06   -0.10826E-05  4488   0.231E-02    0.178E-03
DAV:   2    -0.617473235685E+02    0.98243E-07   -0.23066E-07  5376   0.305E-03    0.896E-04
DAV:   3    -0.617473235262E+02    0.42395E-07   -0.12602E-07  5324   0.199E-03    0.248E-04
DAV:   4    -0.617473235221E+02    0.40984E-08   -0.75023E-09  3056   0.567E-04
  50 F= -.61747324E+02 E0= -.61709256E+02  d E =-.349176E-06
 ZBRENT: can't locate minimum, use default step
 trial-energy change:   -0.000000  1 .order   -0.000000   -0.000000   -0.000000
 step:   0.3333(harm=  0.7687)  dis= 0.00008  next Energy=   -61.747325 (dE=-0.156E-05)
 bond charge predicted
       N       E                     dE             d eps       ncg     rms          rms(c)
DAV:   1    -0.617473257971E+02   -0.22709E-05   -0.97592E-05  4480   0.693E-02    0.538E-03
DAV:   2    -0.617473247563E+02    0.10408E-05   -0.20742E-06  5368   0.913E-03    0.271E-03
DAV:   3    -0.617473243645E+02    0.39184E-06   -0.11482E-06  5332   0.600E-03    0.753E-04
DAV:   4    -0.617473243439E+02    0.20592E-07   -0.73475E-08  5304   0.170E-03    0.462E-04
DAV:   5    -0.617473243340E+02    0.99110E-08   -0.70905E-09  3156   0.598E-04
  51 F= -.61747324E+02 E0= -.61709255E+02  d E =-.116108E-05
 curvature:  -1.38 expect dE=-0.279E-05 dE for cont linesearch -0.312E-06
 ZBRENT: increasing intervall
 opt :   0.8333  next Energy=   -61.747325 (dE=-0.170E-05)
 bond charge predicted
       N       E                     dE             d eps       ncg     rms          rms(c)
DAV:   1    -0.617473309048E+02   -0.65609E-05   -0.39005E-04  4480   0.139E-01    0.108E-02
DAV:   2    -0.617473266063E+02    0.42985E-05   -0.83118E-06  5368   0.183E-02    0.541E-03
DAV:   3    -0.617473250493E+02    0.15569E-05   -0.45667E-06  5324   0.120E-02    0.150E-03
DAV:   4    -0.617473249824E+02    0.66902E-07   -0.29589E-07  5336   0.341E-03    0.914E-04
DAV:   5    -0.617473249607E+02    0.21665E-07   -0.30357E-08  4424   0.119E-03    0.378E-04
DAV:   6    -0.617473249506E+02    0.10196E-07   -0.85752E-09  3076   0.694E-04    0.975E-05
DAV:   7    -0.617473249492E+02    0.13326E-08   -0.13502E-09  2768   0.284E-04
  52 F= -.61747325E+02 E0= -.61709253E+02  d E =-.177634E-05
 curvature:  -2.40 expect dE=-0.128E-04 dE for cont linesearch -0.158E-07
 trial: gam= 1.49716 g(F)=  0.430E-05 g(S)=  0.103E-05 ort =-0.401E-06 (trialstep = 0.968E-01)
 search vector abs. value=  0.588E-04
 bond charge predicted
       N       E                     dE             d eps       ncg     rms          rms(c)
DAV:   1    -0.617473260020E+02   -0.10514E-05   -0.34417E-05  4480   0.408E-02    0.345E-03
DAV:   2    -0.617473255811E+02    0.42081E-06   -0.79569E-07  5204   0.568E-03    0.171E-03
DAV:   3    -0.617473254146E+02    0.16650E-06   -0.50627E-07  5320   0.405E-03    0.490E-04
DAV:   4    -0.617473254007E+02    0.13965E-07   -0.31950E-08  3912   0.119E-03    0.292E-04
DAV:   5    -0.617473253914E+02    0.92816E-08   -0.65884E-09  2804   0.535E-04
  53 F= -.61747325E+02 E0= -.61709252E+02  d E =-.442175E-06
 ZBRENT: can't locate minimum, use default step
 trial-energy change:   -0.000000  1 .order   -0.000000   -0.000000   -0.000000
 step:   0.3872(harm=  0.6295)  dis= 0.00009  next Energy=   -61.747326 (dE=-0.149E-05)
 bond charge predicted
       N       E                     dE             d eps       ncg     rms          rms(c)
DAV:   1    -0.617473317833E+02   -0.63826E-05   -0.30973E-04  4480   0.122E-01    0.104E-02
DAV:   2    -0.617473277555E+02    0.40278E-05   -0.71793E-06  5192   0.171E-02    0.514E-03
DAV:   3    -0.617473263283E+02    0.14272E-05   -0.45825E-06  5308   0.122E-02    0.148E-03
DAV:   4    -0.617473262490E+02    0.79347E-07   -0.30622E-07  5336   0.358E-03    0.893E-04
DAV:   5    -0.617473262216E+02    0.27411E-07   -0.48871E-08  5316   0.139E-03    0.351E-04
DAV:   6    -0.617473262093E+02    0.12271E-07   -0.72847E-09  3008   0.621E-04    0.126E-04
DAV:   7    -0.617473262045E+02    0.47760E-08   -0.21053E-09  2668   0.328E-04
  54 F= -.61747326E+02 E0= -.61709251E+02  d E =-.125531E-05
 curvature:  -3.11 expect dE=-0.940E-05 dE for cont linesearch -0.844E-07
 trial: gam= 0.11195 g(F)=  0.143E-05 g(S)=  0.159E-05 ort = 0.126E-05 (trialstep = 0.155E+00)
 search vector abs. value=  0.404E-05
 bond charge predicted
       N       E                     dE             d eps       ncg     rms          rms(c)
DAV:   1    -0.617473267242E+02   -0.51488E-06   -0.57315E-06  4632   0.180E-02    0.146E-03
DAV:   2    -0.617473266552E+02    0.69006E-07   -0.24473E-07  5476   0.335E-03    0.696E-04
DAV:   3    -0.617473266239E+02    0.31230E-07   -0.50618E-08  5248   0.150E-03    0.295E-04
DAV:   4    -0.617473266105E+02    0.13475E-07   -0.11011E-08  2712   0.673E-04    0.105E-04
DAV:   5    -0.617473266044E+02    0.61079E-08   -0.13155E-09  2328   0.288E-04
  55 F= -.61747327E+02 E0= -.61709251E+02  d E =-.399841E-06
 trial-energy change:   -0.000000  1 .order   -0.000000   -0.000000   -0.000000
 step:   0.6026(harm=  0.6026)  dis= 0.00004  next Energy=   -61.747327 (dE=-0.953E-06)
 bond charge predicted
       N       E                     dE             d eps       ncg     rms          rms(c)
DAV:   1    -0.617473278336E+02   -0.12232E-05   -0.47798E-05  4620   0.521E-02    0.420E-03
DAV:   2    -0.617473272803E+02    0.55332E-06   -0.20471E-06  5476   0.969E-03    0.200E-03
DAV:   3    -0.617473271071E+02    0.17326E-06   -0.41845E-07  5488   0.430E-03    0.866E-04
DAV:   4    -0.617473270546E+02    0.52454E-07   -0.10137E-07  5276   0.195E-03    0.323E-04
DAV:   5    -0.617473270382E+02    0.16410E-07   -0.47159E-09  2892   0.522E-04    0.182E-04
DAV:   6    -0.617473270229E+02    0.15274E-07   -0.24522E-09  2532   0.353E-04    0.505E-05
DAV:   7    -0.617473270217E+02    0.11942E-08   -0.38216E-10  2340   0.158E-04
  56 F= -.61747327E+02 E0= -.61709249E+02  d E =-.817204E-06
 curvature:  -0.39 expect dE=-0.935E-06 dE for cont linesearch -0.242E-09
 trial: gam= 0.88082 g(F)=  0.208E-05 g(S)=  0.350E-06 ort =-0.505E-07 (trialstep = 0.180E+00)
 search vector abs. value=  0.548E-05
 bond charge predicted
       N       E                     dE             d eps       ncg     rms          rms(c)
DAV:   1    -0.617473274839E+02   -0.46100E-06   -0.10745E-05  4600   0.243E-02    0.166E-03
DAV:   2    -0.617473273810E+02    0.10289E-06   -0.40358E-07  5360   0.454E-03    0.845E-04
DAV:   3    -0.617473273451E+02    0.35893E-07   -0.77103E-08  5264   0.176E-03    0.329E-04
DAV:   4    -0.617473273292E+02    0.15906E-07   -0.85967E-09  2968   0.605E-04    0.103E-04
DAV:   5    -0.617473273239E+02    0.53114E-08   -0.19492E-09  2512   0.330E-04
  57 F= -.61747327E+02 E0= -.61709245E+02  d E =-.302193E-06
 trial-energy change:   -0.000000  1 .order   -0.000000   -0.000000   -0.000000
 step:   0.3923(harm=  0.3923)  dis= 0.00004  next Energy=   -61.747327 (dE=-0.468E-06)
 bond charge predicted
       N       E                     dE             d eps       ncg     rms          rms(c)
DAV:   1    -0.617473276314E+02   -0.30214E-06   -0.14763E-05  4596   0.285E-02    0.193E-03
DAV:   2    -0.617473274928E+02    0.13862E-06   -0.54847E-07  5360   0.529E-03    0.985E-04
DAV:   3    -0.617473274460E+02    0.46791E-07   -0.10450E-07  5280   0.205E-03    0.386E-04
DAV:   4    -0.617473274265E+02    0.19443E-07   -0.11862E-08  3196   0.710E-04    0.122E-04
DAV:   5    -0.617473274202E+02    0.63380E-08   -0.26802E-09  2588   0.387E-04
  58 F= -.61747327E+02 E0= -.61709238E+02  d E =-.398456E-06
 curvature:  -0.45 expect dE=-0.795E-06 dE for cont linesearch -0.193E-10
 trial: gam= 0.67834 g(F)=  0.803E-06 g(S)=  0.962E-06 ort =-0.153E-07 (trialstep = 0.223E+00)
 search vector abs. value=  0.426E-05
 bond charge predicted
       N       E                     dE             d eps       ncg     rms          rms(c)
DAV:   1    -0.617473279324E+02   -0.50589E-06   -0.14422E-05  4480   0.271E-02    0.209E-03
DAV:   2    -0.617473278188E+02    0.11363E-06   -0.43264E-07  5384   0.424E-03    0.969E-04
DAV:   3    -0.617473277848E+02    0.34004E-07   -0.10426E-07  5500   0.208E-03    0.507E-04
DAV:   4    -0.617473277790E+02    0.57603E-08   -0.33812E-08  4532   0.107E-03
  59 F= -.61747328E+02 E0= -.61709234E+02  d E =-.358838E-06
 trial-energy change:   -0.000000  1 .order   -0.000000   -0.000000   -0.000000
 step:   0.3216(harm=  0.5704)  dis= 0.00003  next Energy=   -61.747328 (dE=-0.416E-06)
 bond charge predicted
       N       E                     dE             d eps       ncg     rms          rms(c)
DAV:   1    -0.617473279053E+02   -0.12055E-06   -0.28220E-06  4488   0.120E-02    0.931E-04
DAV:   2    -0.617473278920E+02    0.13357E-07   -0.84588E-08  5372   0.188E-03    0.442E-04
DAV:   3    -0.617473278863E+02    0.56737E-08   -0.18883E-08  3320   0.929E-04
  60 F= -.61747328E+02 E0= -.61709232E+02  d E =-.466119E-06
 curvature:  -0.34 expect dE=-0.283E-06 dE for cont linesearch -0.655E-07
 trial: gam= 0.01050 g(F)=  0.341E-06 g(S)=  0.495E-06 ort = 0.909E-06 (trialstep = 0.243E+00)
 search vector abs. value=  0.856E-06
 bond charge predicted
       N       E                     dE             d eps       ncg     rms          rms(c)
DAV:   1    -0.617473280774E+02   -0.18538E-06   -0.39841E-06  4524   0.149E-02    0.106E-03
DAV:   2    -0.617473280668E+02    0.10582E-07   -0.13718E-07  5376   0.243E-03    0.510E-04
DAV:   3    -0.617473280628E+02    0.39774E-08   -0.24945E-08  3572   0.106E-03
  61 F= -.61747328E+02 E0= -.61709234E+02  d E =-.176493E-06
 trial-energy change:   -0.000000  1 .order   -0.000000   -0.000000   -0.000000
 step:   0.6966(harm=  0.6966)  dis= 0.00004  next Energy=   -61.747328 (dE=-0.295E-06)
 bond charge predicted
       N       E                     dE             d eps       ncg     rms          rms(c)
DAV:   1    -0.617473282882E+02   -0.22140E-06   -0.14070E-05  4540   0.279E-02    0.199E-03
DAV:   2    -0.617473282169E+02    0.71292E-07   -0.48034E-07  5372   0.455E-03    0.961E-04
DAV:   3    -0.617473281955E+02    0.21337E-07   -0.95403E-08  5492   0.199E-03    0.543E-04
DAV:   4    -0.617473281952E+02    0.33242E-09   -0.35407E-08  4816   0.110E-03
  62 F= -.61747328E+02 E0= -.61709235E+02  d E =-.308910E-06
 curvature:  -0.35 expect dE=-0.489E-06 dE for cont linesearch -0.794E-08
 trial: gam= 1.83145 g(F)=  0.109E-05 g(S)=  0.301E-06 ort =-0.139E-06 (trialstep = 0.761E-01)
 search vector abs. value=  0.375E-05
 bond charge predicted
       N       E                     dE             d eps       ncg     rms          rms(c)
DAV:   1    -0.617473282928E+02   -0.97269E-07   -0.14452E-06  4508   0.870E-03    0.608E-04
DAV:   2    -0.617473282862E+02    0.65838E-08   -0.33430E-08  4560   0.124E-03
  63 F= -.61747328E+02 E0= -.61709235E+02  d E =-.910177E-07
 ZBRENT: can't locate minimum, use default step
 trial-energy change:   -0.000000  1 .order   -0.000000   -0.000000   -0.000000
 step:   0.3045(harm=  0.3045)  dis= 0.00003  next Energy=   -61.747329 (dE=-0.383E-06)
 bond charge predicted
       N       E                     dE             d eps       ncg     rms          rms(c)
DAV:   1    -0.617473286075E+02   -0.31471E-06   -0.12677E-05  4488   0.259E-02    0.192E-03
DAV:   2    -0.617473284976E+02    0.10992E-06   -0.32933E-07  5376   0.377E-03    0.959E-04
DAV:   3    -0.617473284550E+02    0.42600E-07   -0.10684E-07  5436   0.191E-03    0.366E-04
DAV:   4    -0.617473284489E+02    0.61591E-08   -0.16061E-08  3312   0.759E-04
  64 F= -.61747328E+02 E0= -.61709233E+02  d E =-.253636E-06
 curvature:  -0.77 expect dE=-0.693E-06 dE for cont linesearch -0.237E-07
 trial: gam= 0.14620 g(F)=  0.550E-06 g(S)=  0.346E-06 ort = 0.339E-06 (trialstep = 0.122E+00)
 search vector abs. value=  0.108E-05
 bond charge predicted
       N       E                     dE             d eps       ncg     rms          rms(c)
DAV:   1    -0.617473285573E+02   -0.10228E-06   -0.12411E-06  4528   0.839E-03    0.472E-04
DAV:   2    -0.617473285472E+02    0.10122E-07   -0.35803E-08  5220   0.133E-03    0.252E-04
DAV:   3    -0.617473285387E+02    0.85067E-08   -0.63736E-09  2428   0.518E-04
  65 F= -.61747329E+02 E0= -.61709232E+02  d E =-.898101E-07
 ZBRENT: can't locate minimum, use default step
 trial-energy change:   -0.000000  1 .order   -0.000000   -0.000000   -0.000000
 step:   0.4871(harm=  0.5115)  dis= 0.00003  next Energy=   -61.747329 (dE=-0.242E-06)
 bond charge predicted
       N       E                     dE             d eps       ncg     rms          rms(c)
DAV:   1    -0.617473287488E+02   -0.20164E-06   -0.11167E-05  4584   0.252E-02    0.148E-03
DAV:   2    -0.617473286807E+02    0.68061E-07   -0.32602E-07  5484   0.399E-03    0.793E-04
DAV:   3    -0.617473286421E+02    0.38666E-07   -0.63783E-08  5172   0.155E-03    0.251E-04
DAV:   4    -0.617473286290E+02    0.13107E-07   -0.45397E-09  2580   0.490E-04    0.984E-05
DAV:   5    -0.617473286222E+02    0.68007E-08   -0.13227E-09  2352   0.252E-04
  66 F= -.61747329E+02 E0= -.61709227E+02  d E =-.173318E-06
 curvature:  -0.29 expect dE=-0.171E-06 dE for cont linesearch -0.108E-09
 trial: gam= 0.75049 g(F)=  0.425E-06 g(S)=  0.164E-06 ort =-0.200E-07 (trialstep = 0.180E+00)
 search vector abs. value=  0.116E-05
 bond charge predicted
       N       E                     dE             d eps       ncg     rms          rms(c)
DAV:   1    -0.617473287609E+02   -0.13194E-06   -0.25773E-06  4492   0.115E-02    0.967E-04
DAV:   2    -0.617473287311E+02    0.29763E-07   -0.85000E-08  5340   0.191E-03    0.466E-04
DAV:   3    -0.617473287134E+02    0.17709E-07   -0.28072E-08  4144   0.107E-03    0.159E-04
DAV:   4    -0.617473287074E+02    0.60497E-08   -0.48946E-09  2360   0.472E-04
  67 F= -.61747329E+02 E0= -.61709227E+02  d E =-.852167E-07
 ZBRENT: can't locate minimum, use default step
 trial-energy change:   -0.000000  1 .order   -0.000000   -0.000000   -0.000000
 step:   0.7200(harm=  0.7646)  dis= 0.00004  next Energy=   -61.747329 (dE=-0.219E-06)
 bond charge predicted
       N       E                     dE             d eps       ncg     rms          rms(c)
DAV:   1    -0.617473292196E+02   -0.50615E-06   -0.23099E-05  4480   0.344E-02    0.290E-03
DAV:   2    -0.617473289311E+02    0.28849E-06   -0.76344E-07  5336   0.572E-03    0.140E-03
DAV:   3    -0.617473288239E+02    0.10720E-06   -0.26310E-07  5356   0.319E-03    0.475E-04
DAV:   4    -0.617473288020E+02    0.21903E-07   -0.36584E-08  4760   0.120E-03    0.224E-04
DAV:   5    -0.617473287929E+02    0.90793E-08   -0.22768E-09  2496   0.349E-04
  68 F= -.61747329E+02 E0= -.61709227E+02  d E =-.170748E-06
 curvature:  -0.77 expect dE=-0.883E-06 dE for cont linesearch -0.250E-09
 trial: gam= 1.88138 g(F)=  0.874E-06 g(S)=  0.270E-06 ort =-0.194E-07 (trialstep = 0.646E-01)
 search vector abs. value=  0.519E-05
 bond charge predicted
       N       E                     dE             d eps       ncg     rms          rms(c)
DAV:   1    -0.617473288795E+02   -0.77514E-07   -0.13505E-06  4488   0.814E-03    0.689E-04
DAV:   2    -0.617473288649E+02    0.14562E-07   -0.36672E-08  4452   0.124E-03    0.334E-04
DAV:   3    -0.617473288549E+02    0.10079E-07   -0.16743E-08  2932   0.803E-04    0.100E-04
DAV:   4    -0.617473288513E+02    0.35488E-08   -0.29868E-09  2284   0.385E-04
  69 F= -.61747329E+02 E0= -.61709227E+02  d E =-.584030E-07
 ZBRENT: can't locate minimum, use default step
 trial-energy change:   -0.000000  1 .order   -0.000000   -0.000000   -0.000000
 step:   0.2584(harm=  0.5910)  dis= 0.00003  next Energy=   -61.747329 (dE=-0.327E-06)
 bond charge predicted
       N       E                     dE             d eps       ncg     rms          rms(c)
DAV:   1    -0.617473292414E+02   -0.38649E-06   -0.12311E-05  4480   0.245E-02    0.208E-03
DAV:   2    -0.617473290867E+02    0.15465E-06   -0.33980E-07  5252   0.375E-03    0.101E-03
DAV:   3    -0.617473290236E+02    0.63142E-07   -0.15552E-07  5328   0.232E-03    0.322E-04
DAV:   4    -0.617473290130E+02    0.10556E-07   -0.13966E-08  3052   0.744E-04    0.161E-04
DAV:   5    -0.617473290073E+02    0.57457E-08   -0.17326E-09  2360   0.318E-04
  70 F= -.61747329E+02 E0= -.61709227E+02  d E =-.214354E-06
 curvature:  -0.83 expect dE=-0.648E-06 dE for cont linesearch -0.742E-07
 trial: gam= 0.02171 g(F)=  0.416E-06 g(S)=  0.363E-06 ort = 0.681E-06 (trialstep = 0.103E+00)
 search vector abs. value=  0.811E-06
 bond charge predicted
       N       E                     dE             d eps       ncg     rms          rms(c)
DAV:   1    -0.617473290771E+02   -0.64073E-07   -0.76173E-07  4504   0.655E-03    0.336E-04
DAV:   2    -0.617473290830E+02   -0.58897E-08   -0.18998E-08  3836   0.102E-03
  71 F= -.61747329E+02 E0= -.61709226E+02  d E =-.757086E-07
 ZBRENT: can't locate minimum, use default step
 trial-energy change:   -0.000000  1 .order   -0.000000   -0.000000   -0.000000
 step:   0.4134(harm=  0.5145)  dis= 0.00003  next Energy=   -61.747329 (dE=-0.204E-06)
 bond charge predicted
       N       E                     dE             d eps       ncg     rms          rms(c)
DAV:   1    -0.617473292179E+02   -0.14079E-06   -0.68860E-06  4556   0.197E-02    0.110E-03
DAV:   2    -0.617473292195E+02   -0.16032E-08   -0.18479E-07  5376   0.306E-03    0.615E-04
DAV:   3    -0.617473292229E+02   -0.34352E-08   -0.22358E-08  3472   0.102E-03
  72 F= -.61747329E+02 E0= -.61709225E+02  d E =-.215646E-06
 curvature:  -0.25 expect dE=-0.105E-06 dE for cont linesearch -0.305E-08
 trial: gam= 0.44111 g(F)=  0.195E-06 g(S)=  0.229E-06 ort = 0.100E-06 (trialstep = 0.165E+00)
 search vector abs. value=  0.670E-06
 bond charge predicted
       N       E                     dE             d eps       ncg     rms          rms(c)
DAV:   1    -0.617473293139E+02   -0.94435E-07   -0.13364E-06  4516   0.826E-03    0.748E-04
DAV:   2    -0.617473293124E+02    0.15168E-08   -0.57554E-08  5356   0.149E-03
  73 F= -.61747329E+02 E0= -.61709225E+02  d E =-.894834E-07
 ZBRENT: can't locate minimum, use default step
 trial-energy change:   -0.000000  1 .order   -0.000000   -0.000000   -0.000000
 step:   0.6614(harm=  0.9165)  dis= 0.00003  next Energy=   -61.747329 (dE=-0.215E-06)
 bond charge predicted
       N       E                     dE             d eps       ncg     rms          rms(c)
DAV:   1    -0.617473295980E+02   -0.28410E-06   -0.12438E-05  4488   0.250E-02    0.239E-03
DAV:   2    -0.617473294596E+02    0.13840E-06   -0.53004E-07  5364   0.442E-03    0.109E-03
DAV:   3    -0.617473294192E+02    0.40443E-07   -0.12706E-07  5644   0.226E-03    0.601E-04
DAV:   4    -0.617473294135E+02    0.56441E-08   -0.64924E-08  5300   0.144E-03
  74 F= -.61747329E+02 E0= -.61709226E+02  d E =-.190615E-06
 curvature:  -0.58 expect dE=-0.503E-06 dE for cont linesearch -0.163E-07
 trial: gam= 0.00000 g(F)=  0.513E-06 g(S)=  0.353E-06 ort =-0.137E-06 (trialstep = 0.205E+00)
 search vector abs. value=  0.866E-06
 bond charge predicted
       N       E                     dE             d eps       ncg     rms          rms(c)
DAV:   1    -0.617473295232E+02   -0.10399E-06   -0.34603E-06  4952   0.142E-02    0.761E-04
DAV:   2    -0.617473294968E+02    0.26342E-07   -0.12509E-07  5316   0.249E-03    0.423E-04
DAV:   3    -0.617473294858E+02    0.11032E-07   -0.99088E-09  3076   0.733E-04    0.244E-04
DAV:   4    -0.617473294729E+02    0.12940E-07   -0.55908E-09  2364   0.533E-04    0.557E-05
DAV:   5    -0.617473294704E+02    0.24377E-08   -0.84547E-10  2264   0.229E-04
  75 F= -.61747329E+02 E0= -.61709225E+02  d E =-.568855E-07
 trial-energy change:   -0.000000  1 .order   -0.000000   -0.000000   -0.000000
 step:   0.2270(harm=  0.2270)  dis= 0.00002  next Energy=   -61.747330 (dE=-0.983E-07)
 bond charge predicted
       N       E                     dE             d eps       ncg     rms          rms(c)
DAV:   1    -0.617473294704E+02    0.24363E-08   -0.42319E-08  4580   0.158E-03    0.900E-05
DAV:   2    -0.617473294675E+02    0.28813E-08   -0.14179E-09  2288   0.281E-04
  76 F= -.61747329E+02 E0= -.61709225E+02  d E =-.540056E-07
 curvature:  -0.11 expect dE=-0.324E-07 dE for cont linesearch -0.312E-11
 trial: gam= 0.32369 g(F)=  0.150E-06 g(S)=  0.136E-06 ort = 0.488E-08 (trialstep = 0.209E+00)
 search vector abs. value=  0.379E-06
 reached required accuracy - stopping structural energy minimisation
 writing wavefunctions
Sun Mar  6 01:38:53 CST 2022
