Thu Dec 23 22:04:37 CST 2021
 running on   48 total cores
 distrk:  each k-point on   48 cores,    1 groups
 distr:  one band on   24 cores,    2 groups
 using from now: INCAR     
 vasp.5.3.5 31Mar14 (build Jan 11 2016 19:50:55) complex                        
  
 POSCAR found type information on POSCAR  Ga N  O  Zn
 POSCAR found :  4 types and       8 ions
 scaLAPACK will be used

 ----------------------------------------------------------------------------- 
|                                                                             |
|           W    W    AA    RRRRR   N    N  II  N    N   GGGG   !!!           |
|           W    W   A  A   R    R  NN   N  II  NN   N  G    G  !!!           |
|           W    W  A    A  R    R  N N  N  II  N N  N  G       !!!           |
|           W WW W  AAAAAA  RRRRR   N  N N  II  N  N N  G  GGG   !            |
|           WW  WW  A    A  R   R   N   NN  II  N   NN  G    G                |
|           W    W  A    A  R    R  N    N  II  N    N   GGGG   !!!           |
|                                                                             |
|      For optimal performance we recommend to set                            |
|        NCORE= 4 - approx SQRT( number of cores)                             |
|      NCORE specifies how many cores store one orbital (NPAR=cpu/NCORE).     |
|      This setting can  greatly improve the performance of VASP for DFT.     |
|      The default, NPAR=number of cores might be grossly inefficient         |
|      on modern multi-core architectures or massively parallel machines.     |
|      Do your own testing !!!!                                               |
|      Unfortunately you need to use the default for GW and RPA calculations. |
|      (for HF NCORE is supported but not extensively tested yet)             |
|                                                                             |
 ----------------------------------------------------------------------------- 

 LDA part: xc-table for Pade appr. of Perdew
 POSCAR, INCAR and KPOINTS ok, starting setup
 WARNING: small aliasing (wrap around) errors must be expected
 FFT: planning ...
 WAVECAR not read
 entering main loop
       N       E                     dE             d eps       ncg     rms          rms(c)
DAV:   1     0.884164870418E+03    0.88416E+03   -0.42009E+04 10184   0.303E+03
DAV:   2     0.144951459268E+03   -0.73921E+03   -0.71060E+03 10064   0.741E+02
DAV:   3    -0.275648145144E+02   -0.17252E+03   -0.16827E+03 11424   0.256E+02
DAV:   4    -0.430458485016E+02   -0.15481E+02   -0.15305E+02 12800   0.780E+01
DAV:   5    -0.434784488726E+02   -0.43260E+00   -0.43077E+00 11668   0.126E+01    0.149E+01
DAV:   6    -0.383547933530E+02    0.51237E+01   -0.20313E+01 18164   0.553E+01    0.713E+00
DAV:   7    -0.384563918974E+02   -0.10160E+00   -0.45438E+00 10332   0.152E+01    0.474E+00
DAV:   8    -0.384433775535E+02    0.13014E-01   -0.18544E+00 15308   0.102E+01    0.222E+00
DAV:   9    -0.383490487404E+02    0.94329E-01   -0.39167E-01 15116   0.649E+00    0.629E-01
DAV:  10    -0.383524903655E+02   -0.34416E-02   -0.13011E-01 12388   0.243E+00    0.341E-01
DAV:  11    -0.383523392612E+02    0.15110E-03   -0.19735E-02 12684   0.119E+00    0.813E-02
DAV:  12    -0.383525743193E+02   -0.23506E-03   -0.18426E-03 10980   0.424E-01    0.522E-02
DAV:  13    -0.383526998407E+02   -0.12552E-03   -0.38143E-04 11516   0.199E-01    0.245E-02
DAV:  14    -0.383527174293E+02   -0.17589E-04   -0.87255E-05 13720   0.103E-01    0.119E-02
DAV:  15    -0.383527191076E+02   -0.16784E-05   -0.27522E-05 11824   0.496E-02    0.635E-03
DAV:  16    -0.383527198248E+02   -0.71716E-06   -0.10431E-05 13332   0.210E-02    0.276E-03
DAV:  17    -0.383527198941E+02   -0.69329E-07   -0.11116E-06 12556   0.834E-03    0.118E-03
DAV:  18    -0.383527198718E+02    0.22273E-07   -0.30418E-07 10460   0.361E-03    0.593E-04
DAV:  19    -0.383527198721E+02   -0.29877E-09   -0.47025E-08 11380   0.229E-03
   1 F= -.38352720E+02 E0= -.38342355E+02  d E =-.383527E+02
 curvature:   0.00 expect dE= 0.000E+00 dE for cont linesearch  0.000E+00
 trial: gam= 0.00000 g(F)=  0.360E-01 g(S)=  0.258E-01 ort = 0.000E+00 (trialstep = 0.100E+01)
 search vector abs. value=  0.618E-01
 bond charge predicted
       N       E                     dE             d eps       ncg     rms          rms(c)
DAV:   1    -0.385465148958E+02   -0.19380E+00   -0.12797E+01 10620   0.275E+01    0.352E+00
DAV:   2    -0.383901008746E+02    0.15641E+00   -0.14457E+00 11488   0.146E+01    0.140E+00
DAV:   3    -0.383615561629E+02    0.28545E-01   -0.11064E-01 13224   0.391E+00    0.712E-01
DAV:   4    -0.383512486541E+02    0.10308E-01   -0.27927E-02 12564   0.212E+00    0.242E-01
DAV:   5    -0.383507594217E+02    0.48923E-03   -0.72555E-03 10584   0.922E-01    0.921E-02
DAV:   6    -0.383506775334E+02    0.81888E-04   -0.14306E-03 14524   0.346E-01    0.409E-02
DAV:   7    -0.383506802758E+02   -0.27424E-05   -0.30126E-04 12440   0.187E-01    0.192E-02
DAV:   8    -0.383506844415E+02   -0.41657E-05   -0.52456E-05 12300   0.619E-02    0.125E-02
DAV:   9    -0.383506856295E+02   -0.11880E-05   -0.80112E-06 12440   0.341E-02    0.380E-03
DAV:  10    -0.383506859998E+02   -0.37033E-06   -0.17867E-06 14000   0.181E-02    0.145E-03
DAV:  11    -0.383506860475E+02   -0.47683E-07   -0.70176E-07 13276   0.639E-03    0.848E-04
DAV:  12    -0.383506860509E+02   -0.34429E-08   -0.10385E-07 11804   0.345E-03    0.325E-04
DAV:  13    -0.383506860507E+02    0.23965E-09   -0.26603E-08  9164   0.126E-03
   2 F= -.38350686E+02 E0= -.38339327E+02  d E =0.203382E-02
 trial-energy change:    0.002034  1 .order    0.003831   -0.061787    0.069448
 step:   0.4913(harm=  0.4708)  dis= 0.00879  next Energy=   -38.368112 (dE=-0.154E-01)
 bond charge predicted
       N       E                     dE             d eps       ncg     rms          rms(c)
DAV:   1    -0.384210785208E+02   -0.70392E-01   -0.32527E+00 10480   0.133E+01    0.180E+00
DAV:   2    -0.383782225632E+02    0.42856E-01   -0.37107E-01 11352   0.742E+00    0.709E-01
DAV:   3    -0.383708975959E+02    0.73250E-02   -0.29870E-02 13564   0.207E+00    0.371E-01
DAV:   4    -0.383683477907E+02    0.25498E-02   -0.74681E-03 12204   0.104E+00    0.129E-01
DAV:   5    -0.383682127989E+02    0.13499E-03   -0.19003E-03 10708   0.472E-01    0.483E-02
DAV:   6    -0.383681970417E+02    0.15757E-04   -0.36088E-04 14356   0.191E-01    0.199E-02
DAV:   7    -0.383681993756E+02   -0.23339E-05   -0.76639E-05 12328   0.952E-02    0.100E-02
DAV:   8    -0.383682002425E+02   -0.86682E-06   -0.13002E-05 12080   0.344E-02    0.650E-03
DAV:   9    -0.383682003317E+02   -0.89211E-07   -0.21783E-06 12856   0.182E-02    0.205E-03
DAV:  10    -0.383682003360E+02   -0.43669E-08   -0.48829E-07 12972   0.983E-03    0.699E-04
DAV:  11    -0.383682003496E+02   -0.13513E-07   -0.17146E-07 10632   0.323E-03    0.404E-04
DAV:  12    -0.383682003492E+02    0.37926E-09   -0.24437E-08  8056   0.158E-03
   3 F= -.38368200E+02 E0= -.38357402E+02  d E =-.154805E-01
 curvature:  -0.24 expect dE=-0.756E-01 dE for cont linesearch -0.504E-09
 trial: gam= 5.20488 g(F)=  0.272E+00 g(S)=  0.494E-01 ort = 0.115E-04 (trialstep = 0.278E-01)
 search vector abs. value=  0.200E+01
 bond charge predicted
       N       E                     dE             d eps       ncg     rms          rms(c)
DAV:   1    -0.383831263100E+02   -0.14926E-01   -0.29163E-01 11228   0.461E+00    0.618E-01
DAV:   2    -0.383779204960E+02    0.52058E-02   -0.41946E-02 11604   0.263E+00    0.229E-01
DAV:   3    -0.383771518441E+02    0.76865E-03   -0.30762E-03 14048   0.660E-01    0.115E-01
DAV:   4    -0.383768370904E+02    0.31475E-03   -0.68221E-04 12976   0.357E-01    0.343E-02
DAV:   5    -0.383768225732E+02    0.14517E-04   -0.20221E-04 10480   0.155E-01    0.134E-02
DAV:   6    -0.383768210979E+02    0.14753E-05   -0.33918E-05 13708   0.534E-02    0.687E-03
DAV:   7    -0.383768211449E+02   -0.46995E-07   -0.69586E-06 12988   0.290E-02    0.339E-03
DAV:   8    -0.383768213194E+02   -0.17449E-06   -0.12451E-06 11028   0.102E-02    0.204E-03
DAV:   9    -0.383768214281E+02   -0.10874E-06   -0.24244E-07 13456   0.509E-03    0.562E-04
DAV:  10    -0.383768214438E+02   -0.15678E-07   -0.34596E-08  9396   0.304E-03    0.195E-04
DAV:  11    -0.383768214475E+02   -0.36616E-08   -0.12585E-08  6032   0.907E-04
   4 F= -.38376821E+02 E0= -.38365850E+02  d E =-.862110E-02
 ZBRENT: can't locate minimum, use default step
 trial-energy change:   -0.008621  1 .order   -0.008624   -0.008946   -0.008302
 step:   0.1112(harm=  0.3863)  dis= 0.01198  next Energy=   -38.430335 (dE=-0.621E-01)
 bond charge predicted
       N       E                     dE             d eps       ncg     rms          rms(c)
DAV:   1    -0.384547009897E+02   -0.77880E-01   -0.26357E+00 11196   0.139E+01    0.185E+00
DAV:   2    -0.384084307211E+02    0.46270E-01   -0.37227E-01 11700   0.793E+00    0.685E-01
DAV:   3    -0.384017539179E+02    0.66768E-02   -0.28150E-02 13704   0.193E+00    0.344E-01
DAV:   4    -0.383989379471E+02    0.28160E-02   -0.60616E-03 12928   0.107E+00    0.101E-01
DAV:   5    -0.383988237254E+02    0.11422E-03   -0.17978E-03 10488   0.469E-01    0.393E-02
DAV:   6    -0.383988128914E+02    0.10834E-04   -0.29393E-04 13144   0.160E-01    0.205E-02
DAV:   7    -0.383988127803E+02    0.11115E-06   -0.61321E-05 12956   0.877E-02    0.101E-02
DAV:   8    -0.383988139215E+02   -0.11413E-05   -0.11374E-05 10764   0.315E-02    0.600E-03
DAV:   9    -0.383988144979E+02   -0.57633E-06   -0.22659E-06 13452   0.154E-02    0.171E-03
DAV:  10    -0.383988145717E+02   -0.73838E-07   -0.35238E-07 13224   0.880E-03    0.611E-04
DAV:  11    -0.383988145933E+02   -0.21564E-07   -0.10227E-07 10828   0.259E-03    0.252E-04
DAV:  12    -0.383988145949E+02   -0.16589E-08   -0.12575E-08  6360   0.110E-03
   5 F= -.38398815E+02 E0= -.38387248E+02  d E =-.306142E-01
 curvature:  -0.49 expect dE=-0.774E-01 dE for cont linesearch -0.130E-01
 ZBRENT: increasing intervall
 opt :   0.2781  next Energy=   -38.425642 (dE=-0.574E-01)
 bond charge predicted
       N       E                     dE             d eps       ncg     rms          rms(c)
DAV:   1    -0.386433178764E+02   -0.24450E+00   -0.10595E+01 11144   0.282E+01    0.367E+00
DAV:   2    -0.384627802802E+02    0.18054E+00   -0.14598E+00 12004   0.159E+01    0.136E+00
DAV:   3    -0.384377404160E+02    0.25040E-01   -0.11710E-01 13612   0.362E+00    0.686E-01
DAV:   4    -0.384263581492E+02    0.11382E-01   -0.22509E-02 13272   0.201E+00    0.190E-01
DAV:   5    -0.384259918850E+02    0.36626E-03   -0.66767E-03 10500   0.889E-01    0.749E-02
DAV:   6    -0.384259496931E+02    0.42192E-04   -0.97113E-04 13328   0.311E-01    0.387E-02
DAV:   7    -0.384259493304E+02    0.36274E-06   -0.22357E-04 13076   0.167E-01    0.189E-02
DAV:   8    -0.384259528959E+02   -0.35655E-05   -0.47570E-05 11412   0.698E-02    0.117E-02
DAV:   9    -0.384259547949E+02   -0.18990E-05   -0.95889E-06 13184   0.305E-02    0.404E-03
DAV:  10    -0.384259550206E+02   -0.22575E-06   -0.19529E-06 14304   0.164E-02    0.141E-03
DAV:  11    -0.384259550963E+02   -0.75674E-07   -0.47664E-07 10888   0.584E-03    0.635E-04
DAV:  12    -0.384259551000E+02   -0.36466E-08   -0.91963E-08 12548   0.257E-03
   6 F= -.38425955E+02 E0= -.38412999E+02  d E =-.577548E-01
 curvature:  -1.02 expect dE=-0.473E-01 dE for cont linesearch -0.487E-02
 ZBRENT: increasing intervall
 opt :   0.6119  next Energy=   -38.414593 (dE=-0.464E-01)
 bond charge predicted
       N       E                     dE             d eps       ncg     rms          rms(c)
DAV:   1    -0.392363050445E+02   -0.81035E+00   -0.42837E+01 11012   0.579E+01    0.727E+00
DAV:   2    -0.385644696325E+02    0.67184E+00   -0.57800E+00 12360   0.292E+01    0.269E+00
DAV:   3    -0.384646228994E+02    0.99847E-01   -0.42447E-01 12996   0.652E+00    0.138E+00
DAV:   4    -0.384183057488E+02    0.46317E-01   -0.76727E-02 12412   0.404E+00    0.365E-01
DAV:   5    -0.384171874621E+02    0.11183E-02   -0.26311E-02 10560   0.163E+00    0.131E-01
DAV:   6    -0.384170804858E+02    0.10698E-03   -0.32508E-03 12272   0.623E-01    0.763E-02
DAV:   7    -0.384170790733E+02    0.14125E-05   -0.77453E-04 12580   0.346E-01    0.318E-02
DAV:   8    -0.384170948337E+02   -0.15760E-04   -0.18283E-04 11400   0.139E-01    0.208E-02
DAV:   9    -0.384170999760E+02   -0.51423E-05   -0.27251E-05 11892   0.515E-02    0.712E-03
DAV:  10    -0.384171016962E+02   -0.17202E-05   -0.52349E-06 13548   0.287E-02    0.244E-03
DAV:  11    -0.384171019667E+02   -0.27049E-06   -0.16698E-06 11304   0.123E-02    0.134E-03
DAV:  12    -0.384171020424E+02   -0.75744E-07   -0.35003E-07 13368   0.426E-03    0.677E-04
DAV:  13    -0.384171020422E+02    0.22646E-09   -0.61733E-08 12052   0.268E-03
   7 F= -.38417102E+02 E0= -.38402017E+02  d E =-.489017E-01
 curvature:   2.37 expect dE= 0.738E+00 dE for cont linesearch  0.263E-01
 ZBRENT: bracketing found
 ZBRENT: interpolating
 opt :   0.4105  next Energy=   -38.432428 (dE=-0.642E-01)
 bond charge predicted
       N       E                     dE             d eps       ncg     rms          rms(c)
DAV:   1    -0.387561108669E+02   -0.33901E+00   -0.14660E+01 11380   0.311E+01    0.442E+00
DAV:   2    -0.384861063092E+02    0.27000E+00   -0.22366E+00 11684   0.187E+01    0.161E+00
DAV:   3    -0.384481849415E+02    0.37921E-01   -0.17657E-01 13244   0.495E+00    0.824E-01
DAV:   4    -0.384331956462E+02    0.14989E-01   -0.40850E-02 13572   0.235E+00    0.242E-01
DAV:   5    -0.384323542190E+02    0.84143E-03   -0.92172E-03 10624   0.996E-01    0.959E-02
DAV:   6    -0.384322562487E+02    0.97970E-04   -0.14258E-03 13956   0.415E-01    0.431E-02
DAV:   7    -0.384322599833E+02   -0.37346E-05   -0.31340E-04 12568   0.204E-01    0.202E-02
DAV:   8    -0.384322662088E+02   -0.62255E-05   -0.72778E-05 10772   0.824E-02    0.135E-02
DAV:   9    -0.384322675196E+02   -0.13107E-05   -0.11407E-05 12232   0.317E-02    0.501E-03
DAV:  10    -0.384322676796E+02   -0.16008E-06   -0.24421E-06 14504   0.237E-02    0.170E-03
DAV:  11    -0.384322677577E+02   -0.78036E-07   -0.84437E-07 11408   0.840E-03    0.954E-04
DAV:  12    -0.384322677706E+02   -0.12948E-07   -0.15206E-07 12996   0.427E-03    0.435E-04
DAV:  13    -0.384322677728E+02   -0.22219E-08   -0.30127E-08  9436   0.166E-03
   8 F= -.38432268E+02 E0= -.38418258E+02  d E =-.640674E-01
 curvature:  -0.58 expect dE=-0.441E-01 dE for cont linesearch -0.323E-05
 trial: gam= 0.39912 g(F)=  0.453E-01 g(S)=  0.303E-01 ort =-0.333E-02 (trialstep = 0.104E+00)
 search vector abs. value=  0.391E+00
 bond charge predicted
       N       E                     dE             d eps       ncg     rms          rms(c)
DAV:   1    -0.384493608859E+02   -0.17093E-01   -0.73654E-01 10452   0.596E+00    0.772E-01
DAV:   2    -0.384416459966E+02    0.77149E-02   -0.62651E-02 11408   0.307E+00    0.327E-01
DAV:   3    -0.384399831093E+02    0.16629E-02   -0.52554E-03 13432   0.786E-01    0.164E-01
DAV:   4    -0.384394070633E+02    0.57605E-03   -0.12116E-03 12424   0.476E-01    0.472E-02
DAV:   5    -0.384393981888E+02    0.88745E-05   -0.40601E-04 10664   0.193E-01    0.181E-02
DAV:   6    -0.384393983700E+02   -0.18116E-06   -0.58652E-05 12944   0.831E-02    0.952E-03
DAV:   7    -0.384393986401E+02   -0.27011E-06   -0.11480E-05 12552   0.453E-02    0.442E-03
DAV:   8    -0.384393989920E+02   -0.35194E-06   -0.28322E-06 12672   0.148E-02    0.255E-03
DAV:   9    -0.384393990642E+02   -0.72223E-07   -0.49855E-07 13292   0.634E-03    0.910E-04
DAV:  10    -0.384393991023E+02   -0.38059E-07   -0.76645E-08 10708   0.390E-03    0.347E-04
DAV:  11    -0.384393991061E+02   -0.38212E-08   -0.31863E-08 10040   0.131E-03
   9 F= -.38439399E+02 E0= -.38425140E+02  d E =-.713133E-02
 ZBRENT: can't locate minimum, use default step
 trial-energy change:   -0.007131  1 .order   -0.007128   -0.007745   -0.006510
 step:   0.4174(harm=  0.6542)  dis= 0.02020  next Energy=   -38.456547 (dE=-0.243E-01)
 bond charge predicted
       N       E                     dE             d eps       ncg     rms          rms(c)
DAV:   1    -0.385410571145E+02   -0.10166E+00   -0.66672E+00 10508   0.182E+01    0.230E+00
DAV:   2    -0.384732432898E+02    0.67814E-01   -0.55522E-01 11572   0.915E+00    0.974E-01
DAV:   3    -0.384585253865E+02    0.14718E-01   -0.46039E-02 12972   0.224E+00    0.487E-01
DAV:   4    -0.384533799677E+02    0.51454E-02   -0.10373E-02 12620   0.144E+00    0.138E-01
DAV:   5    -0.384533185608E+02    0.61407E-04   -0.35578E-03 10628   0.557E-01    0.520E-02
DAV:   6    -0.384533196481E+02   -0.10873E-05   -0.49362E-04 13568   0.236E-01    0.280E-02
DAV:   7    -0.384533203344E+02   -0.68631E-06   -0.94849E-05 12556   0.134E-01    0.127E-02
DAV:   8    -0.384533231564E+02   -0.28220E-05   -0.25236E-05 12904   0.410E-02    0.731E-03
DAV:   9    -0.384533235065E+02   -0.35011E-06   -0.47609E-06 13772   0.181E-02    0.284E-03
DAV:  10    -0.384533237040E+02   -0.19752E-06   -0.67827E-07 11264   0.111E-02    0.104E-03
DAV:  11    -0.384533237453E+02   -0.41339E-07   -0.31807E-07 12372   0.384E-03    0.540E-04
DAV:  12    -0.384533237377E+02    0.75993E-08   -0.45536E-08 11656   0.228E-03
  10 F= -.38453324E+02 E0= -.38438540E+02  d E =-.210560E-01
 curvature:  -1.40 expect dE=-0.262E+00 dE for cont linesearch -0.263E-02
 ZBRENT: increasing intervall
 opt :   1.0435  next Energy=   -38.448168 (dE=-0.159E-01)
 bond charge predicted
       N       E                     dE             d eps       ncg     rms          rms(c)
DAV:   1    -0.387802549401E+02   -0.32693E+00   -0.26828E+01 10440   0.372E+01    0.454E+00
DAV:   2    -0.385245914820E+02    0.25566E+00   -0.21903E+00 11576   0.181E+01    0.192E+00
DAV:   3    -0.384682577244E+02    0.56334E-01   -0.18461E-01 13252   0.413E+00    0.958E-01
DAV:   4    -0.384479052157E+02    0.20353E-01   -0.38159E-02 12760   0.280E+00    0.270E-01
DAV:   5    -0.384476571448E+02    0.24807E-03   -0.13260E-02 10564   0.982E-01    0.101E-01
DAV:   6    -0.384476319406E+02    0.25204E-04   -0.18218E-03 14152   0.460E-01    0.549E-02
DAV:   7    -0.384476255484E+02    0.63922E-05   -0.37830E-04 13280   0.274E-01    0.233E-02
DAV:   8    -0.384476362481E+02   -0.10700E-04   -0.99919E-05 12964   0.717E-02    0.142E-02
DAV:   9    -0.384476369769E+02   -0.72874E-06   -0.24031E-05 13824   0.383E-02    0.658E-03
DAV:  10    -0.384476372917E+02   -0.31482E-06   -0.40545E-06 13040   0.220E-02    0.209E-03
DAV:  11    -0.384476374966E+02   -0.20486E-06   -0.13952E-06 11516   0.732E-03    0.994E-04
DAV:  12    -0.384476374796E+02    0.16946E-07   -0.16091E-07 12400   0.434E-03    0.430E-04
DAV:  13    -0.384476374785E+02    0.11651E-08   -0.37660E-08  9388   0.223E-03
  11 F= -.38447637E+02 E0= -.38432859E+02  d E =-.153697E-01
 curvature:   2.75 expect dE= 0.342E+01 dE for cont linesearch  0.134E-01
 ZBRENT: bracketing found
 ZBRENT: interpolating
 opt :   0.6569  next Energy=   -38.456567 (dE=-0.243E-01)
 bond charge predicted
       N       E                     dE             d eps       ncg     rms          rms(c)
DAV:   1    -0.385892367893E+02   -0.14160E+00   -0.97448E+00 10332   0.208E+01    0.279E+00
DAV:   2    -0.384854081966E+02    0.10383E+00   -0.80818E-01 11296   0.107E+01    0.118E+00
DAV:   3    -0.384640248735E+02    0.21383E-01   -0.74382E-02 13752   0.281E+00    0.600E-01
DAV:   4    -0.384567081289E+02    0.73167E-02   -0.16365E-02 12708   0.151E+00    0.170E-01
DAV:   5    -0.384565940668E+02    0.11406E-03   -0.47539E-03 10628   0.597E-01    0.633E-02
DAV:   6    -0.384565930885E+02    0.97832E-06   -0.65309E-04 13732   0.266E-01    0.317E-02
DAV:   7    -0.384565939229E+02   -0.83438E-06   -0.11088E-04 13096   0.151E-01    0.148E-02
DAV:   8    -0.384565973661E+02   -0.34432E-05   -0.32017E-05 12096   0.434E-02    0.818E-03
DAV:   9    -0.384565974980E+02   -0.13186E-06   -0.58944E-06 14164   0.201E-02    0.337E-03
DAV:  10    -0.384565976421E+02   -0.14406E-06   -0.99654E-07 10532   0.120E-02    0.139E-03
DAV:  11    -0.384565976946E+02   -0.52552E-07   -0.47066E-07 13288   0.482E-03    0.669E-04
DAV:  12    -0.384565977181E+02   -0.23485E-07   -0.72740E-08 11996   0.293E-03    0.288E-04
DAV:  13    -0.384565977275E+02   -0.94306E-08   -0.19344E-08  7788   0.122E-03
  12 F= -.38456598E+02 E0= -.38441662E+02  d E =-.243300E-01
 curvature:  -0.66 expect dE=-0.302E+00 dE for cont linesearch -0.249E-07
 trial: gam= 6.09425 g(F)=  0.412E+00 g(S)=  0.430E-01 ort =-0.121E-03 (trialstep = 0.561E-02)
 search vector abs. value=  0.150E+02
 bond charge predicted
       N       E                     dE             d eps       ncg     rms          rms(c)
DAV:   1    -0.384601586388E+02   -0.35609E-02   -0.78350E-02 10424   0.194E+00    0.250E-01
DAV:   2    -0.384593585498E+02    0.80009E-03   -0.65177E-03 11264   0.986E-01    0.107E-01
DAV:   3    -0.384591831175E+02    0.17543E-03   -0.55384E-04 13376   0.237E-01    0.531E-02
DAV:   4    -0.384591202201E+02    0.62897E-04   -0.11110E-04 13228   0.144E-01    0.138E-02
DAV:   5    -0.384591193042E+02    0.91595E-06   -0.39285E-05 10648   0.542E-02    0.507E-03
DAV:   6    -0.384591193946E+02   -0.90426E-07   -0.45987E-06 12388   0.250E-02    0.300E-03
DAV:   7    -0.384591194321E+02   -0.37486E-07   -0.87196E-07 12220   0.141E-02    0.138E-03
DAV:   8    -0.384591194927E+02   -0.60580E-07   -0.28869E-07 13384   0.437E-03    0.709E-04
DAV:   9    -0.384591194968E+02   -0.41637E-08   -0.59051E-08 12116   0.218E-03
  13 F= -.38459119E+02 E0= -.38444182E+02  d E =-.252177E-02
 ZBRENT: can't locate minimum, use default step
 trial-energy change:   -0.002522  1 .order   -0.002522   -0.002547   -0.002497
 step:   0.0224(harm=  0.2871)  dis= 0.00707  next Energy=   -38.521764 (dE=-0.652E-01)
 bond charge predicted
       N       E                     dE             d eps       ncg     rms          rms(c)
DAV:   1    -0.384756431294E+02   -0.16524E-01   -0.70639E-01 10424   0.585E+00    0.748E-01
DAV:   2    -0.384684962928E+02    0.71468E-02   -0.58426E-02 11312   0.296E+00    0.320E-01
DAV:   3    -0.384669374179E+02    0.15589E-02   -0.49798E-03 13244   0.706E-01    0.159E-01
DAV:   4    -0.384663775093E+02    0.55991E-03   -0.98622E-04 13368   0.439E-01    0.412E-02
DAV:   5    -0.384663720638E+02    0.54455E-05   -0.35781E-04 10636   0.163E-01    0.151E-02
DAV:   6    -0.384663729036E+02   -0.83982E-06   -0.41613E-05 12524   0.744E-02    0.899E-03
DAV:   7    -0.384663729980E+02   -0.94460E-07   -0.78455E-06 12316   0.424E-02    0.413E-03
DAV:   8    -0.384663733809E+02   -0.38287E-06   -0.26166E-06 13608   0.129E-02    0.215E-03
DAV:   9    -0.384663733896E+02   -0.86452E-08   -0.59292E-07 13840   0.686E-03    0.955E-04
DAV:  10    -0.384663734219E+02   -0.32355E-07   -0.10026E-07 10816   0.318E-03    0.408E-04
DAV:  11    -0.384663734317E+02   -0.98189E-08   -0.40497E-08 10836   0.147E-03
  14 F= -.38466373E+02 E0= -.38451455E+02  d E =-.977570E-02
 curvature:  -0.55 expect dE=-0.207E+00 dE for cont linesearch -0.638E-02
 ZBRENT: increasing intervall
 opt :   0.0561  next Energy=   -38.479466 (dE=-0.229E-01)
 bond charge predicted
       N       E                     dE             d eps       ncg     rms          rms(c)
DAV:   1    -0.385158391056E+02   -0.49466E-01   -0.28306E+00 10432   0.118E+01    0.149E+00
DAV:   2    -0.384877527158E+02    0.28086E-01   -0.23221E-01 11400   0.593E+00    0.636E-01
DAV:   3    -0.384816191835E+02    0.61335E-02   -0.19942E-02 13212   0.139E+00    0.316E-01
DAV:   4    -0.384793903975E+02    0.22288E-02   -0.38515E-03 13408   0.886E-01    0.820E-02
DAV:   5    -0.384793718343E+02    0.18563E-04   -0.14305E-03 10608   0.323E-01    0.299E-02
DAV:   6    -0.384793751407E+02   -0.33065E-05   -0.16679E-04 12972   0.146E-01    0.180E-02
DAV:   7    -0.384793750363E+02    0.10440E-06   -0.30612E-05 12452   0.839E-02    0.823E-03
DAV:   8    -0.384793764032E+02   -0.13668E-05   -0.10434E-05 13800   0.250E-02    0.433E-03
DAV:   9    -0.384793764062E+02   -0.29941E-08   -0.26834E-06 13776   0.148E-02    0.204E-03
DAV:  10    -0.384793764757E+02   -0.69545E-07   -0.45005E-07 11632   0.672E-03    0.815E-04
DAV:  11    -0.384793765093E+02   -0.33571E-07   -0.17216E-07 11988   0.307E-03    0.342E-04
DAV:  12    -0.384793765009E+02    0.84260E-08   -0.21640E-08  8440   0.137E-03
  15 F= -.38479377E+02 E0= -.38464590E+02  d E =-.227788E-01
 curvature:  -1.13 expect dE=-0.310E+00 dE for cont linesearch -0.967E-02
 ZBRENT: increasing intervall
 opt :   0.1234  next Energy=   -38.499549 (dE=-0.430E-01)
 bond charge predicted
       N       E                     dE             d eps       ncg     rms          rms(c)
DAV:   1    -0.386395301695E+02   -0.16015E+00   -0.11369E+01 10456   0.240E+01    0.295E+00
DAV:   2    -0.385314229513E+02    0.10811E+00   -0.91996E-01 11476   0.120E+01    0.126E+00
DAV:   3    -0.385078561032E+02    0.23567E-01   -0.81411E-02 13020   0.267E+00    0.626E-01
DAV:   4    -0.384990272308E+02    0.88289E-02   -0.15054E-02 13680   0.177E+00    0.163E-01
DAV:   5    -0.384989405669E+02    0.86664E-04   -0.55321E-03 10592   0.621E-01    0.595E-02
DAV:   6    -0.384989506987E+02   -0.10132E-04   -0.66935E-04 13520   0.290E-01    0.358E-02
DAV:   7    -0.384989481416E+02    0.25571E-05   -0.12493E-04 12992   0.171E-01    0.160E-02
DAV:   8    -0.384989531939E+02   -0.50523E-05   -0.40354E-05 13392   0.490E-02    0.849E-03
DAV:   9    -0.384989532328E+02   -0.38962E-07   -0.11903E-05 13928   0.317E-02    0.448E-03
DAV:  10    -0.384989533125E+02   -0.79720E-07   -0.22788E-06 13128   0.143E-02    0.157E-03
DAV:  11    -0.384989534276E+02   -0.11510E-06   -0.64495E-07 11104   0.604E-03    0.644E-04
DAV:  12    -0.384989534161E+02    0.11581E-07   -0.83725E-08 12192   0.240E-03    0.317E-04
DAV:  13    -0.384989534155E+02    0.60027E-09   -0.13370E-08  7548   0.973E-04
  16 F= -.38498953E+02 E0= -.38484677E+02  d E =-.423557E-01
 curvature:  -2.35 expect dE=-0.332E+00 dE for cont linesearch -0.787E-02
 ZBRENT: increasing intervall
 opt :   0.2581  next Energy=   -38.510987 (dE=-0.544E-01)
 bond charge predicted
       N       E                     dE             d eps       ncg     rms          rms(c)
DAV:   1    -0.390232741015E+02   -0.52432E+00   -0.45990E+01 10512   0.496E+01    0.580E+00
DAV:   2    -0.386320660514E+02    0.39121E+00   -0.37171E+00 11364   0.235E+01    0.248E+00
DAV:   3    -0.385431729536E+02    0.88893E-01   -0.33077E-01 13196   0.501E+00    0.123E+00
DAV:   4    -0.385083565674E+02    0.34816E-01   -0.56186E-02 14356   0.360E+00    0.336E-01
DAV:   5    -0.385076921984E+02    0.66437E-03   -0.20688E-02 10660   0.117E+00    0.116E-01
DAV:   6    -0.385077191190E+02   -0.26921E-04   -0.28699E-03 13624   0.575E-01    0.722E-02
DAV:   7    -0.385077003916E+02    0.18727E-04   -0.52468E-04 13396   0.331E-01    0.309E-02
DAV:   8    -0.385077188668E+02   -0.18475E-04   -0.15869E-04 12816   0.992E-02    0.166E-02
DAV:   9    -0.385077194888E+02   -0.62203E-06   -0.47555E-05 13704   0.578E-02    0.856E-03
DAV:  10    -0.385077198579E+02   -0.36911E-06   -0.86165E-06 13212   0.284E-02    0.285E-03
DAV:  11    -0.385077202855E+02   -0.42762E-06   -0.23511E-06 11148   0.114E-02    0.128E-03
DAV:  12    -0.385077202850E+02    0.50341E-09   -0.28212E-07 12408   0.422E-03    0.563E-04
DAV:  13    -0.385077202905E+02   -0.54488E-08   -0.54145E-08  9824   0.170E-03
  17 F= -.38507720E+02 E0= -.38494763E+02  d E =-.511226E-01
 curvature:  -3.59 expect dE=-0.763E+00 dE for cont linesearch -0.278E-02
 ZBRENT: bracketing found
 ZBRENT: interpolating
 opt :   0.2144  next Energy=   -38.510068 (dE=-0.535E-01)
 bond charge predicted
       N       E                     dE             d eps       ncg     rms          rms(c)
DAV:   1    -0.385666028208E+02   -0.58883E-01   -0.45483E+00 10532   0.143E+01    0.185E+00
DAV:   2    -0.385225643154E+02    0.44039E-01   -0.36672E-01 11208   0.738E+00    0.797E-01
DAV:   3    -0.385130888370E+02    0.94755E-02   -0.34599E-02 13180   0.181E+00    0.397E-01
DAV:   4    -0.385096843933E+02    0.34044E-02   -0.63574E-03 12644   0.102E+00    0.104E-01
DAV:   5    -0.385096606949E+02    0.23698E-04   -0.22872E-03 10696   0.390E-01    0.379E-02
DAV:   6    -0.385096671399E+02   -0.64450E-05   -0.27252E-04 12584   0.186E-01    0.228E-02
DAV:   7    -0.385096662202E+02    0.91970E-06   -0.45691E-05 12692   0.105E-01    0.107E-02
DAV:   8    -0.385096680472E+02   -0.18270E-05   -0.17838E-05 14288   0.311E-02    0.573E-03
DAV:   9    -0.385096679441E+02    0.10306E-06   -0.50407E-06 13784   0.216E-02    0.267E-03
DAV:  10    -0.385096679742E+02   -0.30015E-07   -0.81310E-07 11336   0.841E-03    0.116E-03
DAV:  11    -0.385096679972E+02   -0.23072E-07   -0.29558E-07 12572   0.416E-03    0.393E-04
DAV:  12    -0.385096680203E+02   -0.23080E-07   -0.38646E-08 11416   0.156E-03    0.226E-04
DAV:  13    -0.385096680252E+02   -0.48794E-08   -0.61629E-09  6052   0.878E-04
  18 F= -.38509668E+02 E0= -.38496260E+02  d E =-.530703E-01
 curvature:  -3.04 expect dE=-0.409E+00 dE for cont linesearch -0.129E-04
 trial: gam= 0.26504 g(F)=  0.577E-01 g(S)=  0.769E-01 ort = 0.798E-02 (trialstep = 0.474E-01)
 search vector abs. value=  0.119E+01
 bond charge predicted
       N       E                     dE             d eps       ncg     rms          rms(c)
DAV:   1    -0.385193685785E+02   -0.97006E-02   -0.42551E-01 10196   0.381E+00    0.433E-01
DAV:   2    -0.385170893579E+02    0.22792E-02   -0.15544E-02 12100   0.138E+00    0.231E-01
DAV:   3    -0.385161499523E+02    0.93941E-03   -0.19768E-03 13760   0.442E-01    0.946E-02
DAV:   4    -0.385159924523E+02    0.15750E-03   -0.48792E-04 12840   0.257E-01    0.235E-02
DAV:   5    -0.385159982779E+02   -0.58256E-05   -0.15107E-04 10788   0.101E-01    0.110E-02
DAV:   6    -0.385159987412E+02   -0.46337E-06   -0.18895E-05 13836   0.436E-02    0.681E-03
DAV:   7    -0.385159985434E+02    0.19785E-06   -0.33885E-06 12556   0.242E-02    0.327E-03
DAV:   8    -0.385159986857E+02   -0.14226E-06   -0.21134E-06 13968   0.967E-03    0.204E-03
DAV:   9    -0.385159986320E+02    0.53610E-07   -0.38508E-07 13136   0.554E-03    0.699E-04
DAV:  10    -0.385159986462E+02   -0.14120E-07   -0.11854E-07 10816   0.239E-03    0.265E-04
DAV:  11    -0.385159986432E+02    0.29922E-08   -0.98963E-09  6024   0.990E-04
  19 F= -.38515999E+02 E0= -.38502716E+02  d E =-.633062E-02
 ZBRENT: can't locate minimum, use default step
 trial-energy change:   -0.006331  1 .order   -0.006328   -0.006476   -0.006180
 step:   0.1895(harm=  1.0374)  dis= 0.01704  next Energy=   -38.580586 (dE=-0.709E-01)
 bond charge predicted
       N       E                     dE             d eps       ncg     rms          rms(c)
DAV:   1    -0.385630905577E+02   -0.47092E-01   -0.38342E+00 10196   0.115E+01    0.129E+00
DAV:   2    -0.385429496360E+02    0.20141E-01   -0.14146E-01 12120   0.414E+00    0.692E-01
DAV:   3    -0.385345469215E+02    0.84027E-02   -0.17489E-02 13696   0.134E+00    0.284E-01
DAV:   4    -0.385331219373E+02    0.14250E-02   -0.44478E-03 12360   0.805E-01    0.717E-02
DAV:   5    -0.385331753246E+02   -0.53387E-04   -0.13859E-03 10740   0.309E-01    0.331E-02
DAV:   6    -0.385331799722E+02   -0.46476E-05   -0.18225E-04 13180   0.144E-01    0.207E-02
DAV:   7    -0.385331787029E+02    0.12693E-05   -0.30895E-05 11732   0.778E-02    0.101E-02
DAV:   8    -0.385331797445E+02   -0.10416E-05   -0.19900E-05 15180   0.311E-02    0.611E-03
DAV:   9    -0.385331792989E+02    0.44558E-06   -0.37543E-06 13176   0.170E-02    0.219E-03
DAV:  10    -0.385331794206E+02   -0.12163E-06   -0.10846E-06 10912   0.689E-03    0.842E-04
DAV:  11    -0.385331794205E+02    0.81855E-11   -0.98109E-08 12084   0.280E-03
  20 F= -.38533179E+02 E0= -.38520283E+02  d E =-.235114E-01
 curvature:  -1.20 expect dE=-0.138E+00 dE for cont linesearch -0.125E-01
 ZBRENT: increasing intervall
 opt :   0.4736  next Energy=   -38.559347 (dE=-0.497E-01)
 bond charge predicted
       N       E                     dE             d eps       ncg     rms          rms(c)
DAV:   1    -0.386741783820E+02   -0.14100E+00   -0.15347E+01 10220   0.233E+01    0.256E+00
DAV:   2    -0.385974739599E+02    0.76704E-01   -0.57938E-01 11680   0.825E+00    0.137E+00
DAV:   3    -0.385645064930E+02    0.32967E-01   -0.69494E-02 12912   0.271E+00    0.569E-01
DAV:   4    -0.385589124087E+02    0.55941E-02   -0.19411E-02 12704   0.166E+00    0.145E-01
DAV:   5    -0.385591067319E+02   -0.19432E-03   -0.54165E-03 10756   0.620E-01    0.662E-02
DAV:   6    -0.385591255787E+02   -0.18847E-04   -0.78455E-04 13132   0.333E-01    0.422E-02
DAV:   7    -0.385591240628E+02    0.15159E-05   -0.13133E-04 11820   0.166E-01    0.209E-02
DAV:   8    -0.385591262865E+02   -0.22237E-05   -0.74034E-05 15320   0.687E-02    0.109E-02
DAV:   9    -0.385591254733E+02    0.81322E-06   -0.13921E-05 13048   0.327E-02    0.439E-03
DAV:  10    -0.385591259667E+02   -0.49343E-06   -0.40662E-06 11200   0.126E-02    0.205E-03
DAV:  11    -0.385591259625E+02    0.41964E-08   -0.43149E-07 13284   0.563E-03    0.796E-04
DAV:  12    -0.385591259722E+02   -0.96852E-08   -0.16351E-07 12044   0.250E-03    0.411E-04
DAV:  13    -0.385591259694E+02    0.27335E-08   -0.20589E-08  8180   0.164E-03
  21 F= -.38559126E+02 E0= -.38547203E+02  d E =-.494579E-01
 curvature:  -2.52 expect dE=-0.400E+00 dE for cont linesearch -0.109E-01
 ZBRENT: increasing intervall
 opt :   1.0420  next Energy=   -38.577491 (dE=-0.678E-01)
 bond charge predicted
       N       E                     dE             d eps       ncg     rms          rms(c)
DAV:   1    -0.389896439426E+02   -0.43052E+00   -0.61741E+01 10216   0.482E+01    0.501E+00
DAV:   2    -0.387252525844E+02    0.26439E+00   -0.25586E+00 11352   0.170E+01    0.270E+00
DAV:   3    -0.385996009011E+02    0.12565E+00   -0.30049E-01 14112   0.553E+00    0.115E+00
DAV:   4    -0.385758987788E+02    0.23702E-01   -0.71469E-02 12696   0.336E+00    0.312E-01
DAV:   5    -0.385764292270E+02   -0.53045E-03   -0.21597E-02 10920   0.120E+00    0.134E-01
DAV:   6    -0.385764789052E+02   -0.49678E-04   -0.33171E-03 12524   0.699E-01    0.854E-02
DAV:   7    -0.385764865222E+02   -0.76170E-05   -0.55688E-04 12248   0.337E-01    0.431E-02
DAV:   8    -0.385764859854E+02    0.53679E-06   -0.23663E-04 16152   0.144E-01    0.164E-02
DAV:   9    -0.385764890503E+02   -0.30649E-05   -0.40728E-05 10572   0.523E-02    0.857E-03
DAV:  10    -0.385764903469E+02   -0.12966E-05   -0.10400E-05 13948   0.213E-02    0.340E-03
DAV:  11    -0.385764904625E+02   -0.11559E-06   -0.15850E-06 13596   0.135E-02    0.120E-03
DAV:  12    -0.385764905061E+02   -0.43630E-07   -0.46905E-07 13468   0.463E-03    0.930E-04
DAV:  13    -0.385764904899E+02    0.16230E-07   -0.13071E-07 13564   0.302E-03    0.320E-04
DAV:  14    -0.385764904895E+02    0.35106E-09   -0.35523E-08 10248   0.159E-03
  22 F= -.38576490E+02 E0= -.38567738E+02  d E =-.668225E-01
 curvature:  -4.24 expect dE=-0.195E+01 dE for cont linesearch -0.346E-03
 trial: gam= 3.21079 g(F)=  0.422E+00 g(S)=  0.367E-01 ort =-0.986E-02 (trialstep = 0.231E-01)
 search vector abs. value=  0.127E+02
 bond charge predicted
       N       E                     dE             d eps       ncg     rms          rms(c)
DAV:   1    -0.385930491680E+02   -0.16559E-01   -0.10802E+00 10140   0.609E+00    0.667E-01
DAV:   2    -0.385877735500E+02    0.52756E-02   -0.37641E-02 12300   0.214E+00    0.370E-01
DAV:   3    -0.385853626871E+02    0.24109E-02   -0.48768E-03 13404   0.677E-01    0.145E-01
DAV:   4    -0.385850164486E+02    0.34624E-03   -0.13120E-03 12828   0.400E-01    0.379E-02
DAV:   5    -0.385850301182E+02   -0.13670E-04   -0.36865E-04 10872   0.154E-01    0.178E-02
DAV:   6    -0.385850310310E+02   -0.91282E-06   -0.50833E-05 13932   0.712E-02    0.115E-02
DAV:   7    -0.385850303343E+02    0.69667E-06   -0.84829E-06 12172   0.383E-02    0.573E-03
DAV:   8    -0.385850304694E+02   -0.13509E-06   -0.63101E-06 14580   0.180E-02    0.308E-03
DAV:   9    -0.385850303679E+02    0.10149E-06   -0.99152E-07 11940   0.935E-03    0.127E-03
DAV:  10    -0.385850303865E+02   -0.18614E-07   -0.38665E-07 12104   0.416E-03    0.519E-04
DAV:  11    -0.385850303854E+02    0.11014E-08   -0.52632E-08 11044   0.167E-03
  23 F= -.38585030E+02 E0= -.38576764E+02  d E =-.853990E-02
 ZBRENT: can't locate minimum, use default step
 trial-energy change:   -0.008540  1 .order   -0.008558   -0.009893   -0.007223
 step:   0.0926(harm=  0.0858)  dis= 0.02886  next Energy=   -38.596206 (dE=-0.197E-01)
 bond charge predicted
       N       E                     dE             d eps       ncg     rms          rms(c)
DAV:   1    -0.386650109364E+02   -0.79981E-01   -0.97424E+00 10124   0.185E+01    0.199E+00
DAV:   2    -0.386190681355E+02    0.45943E-01   -0.34977E-01 12260   0.645E+00    0.111E+00
DAV:   3    -0.385976397382E+02    0.21428E-01   -0.44363E-02 13612   0.209E+00    0.443E-01
DAV:   4    -0.385943744733E+02    0.32653E-02   -0.11837E-02 12000   0.128E+00    0.117E-01
DAV:   5    -0.385945014552E+02   -0.12698E-03   -0.35076E-03 10880   0.470E-01    0.537E-02
DAV:   6    -0.385945073229E+02   -0.58676E-05   -0.46129E-04 13228   0.238E-01    0.339E-02
DAV:   7    -0.385945044798E+02    0.28431E-05   -0.76023E-05 11344   0.123E-01    0.170E-02
DAV:   8    -0.385945048932E+02   -0.41343E-06   -0.47327E-05 15352   0.555E-02    0.791E-03
DAV:   9    -0.385945045295E+02    0.36368E-06   -0.75600E-06 11844   0.245E-02    0.346E-03
DAV:  10    -0.385945047620E+02   -0.23250E-06   -0.31849E-06 12540   0.110E-02    0.199E-03
DAV:  11    -0.385945047435E+02    0.18512E-07   -0.45395E-07 12116   0.485E-03    0.105E-03
DAV:  12    -0.385945047421E+02    0.14052E-08   -0.17744E-07 12236   0.209E-03    0.352E-04
DAV:  13    -0.385945047396E+02    0.24579E-08   -0.20300E-08  9140   0.118E-03
  24 F= -.38594505E+02 E0= -.38587630E+02  d E =-.180143E-01
 curvature:  -1.26 expect dE=-0.207E+00 dE for cont linesearch -0.152E-03
 ZBRENT: interpolating
 opt :   0.0848  next Energy=   -38.594656 (dE=-0.182E-01)
 bond charge predicted
       N       E                     dE             d eps       ncg     rms          rms(c)
DAV:   1    -0.385955092551E+02   -0.10045E-02   -0.11958E-01 10184   0.200E+00    0.219E-01
DAV:   2    -0.385949391888E+02    0.57007E-03   -0.39938E-03 12236   0.700E-01    0.122E-01
DAV:   3    -0.385946722276E+02    0.26696E-03   -0.56268E-04 13468   0.223E-01    0.463E-02
DAV:   4    -0.385946387645E+02    0.33463E-04   -0.14261E-04 12360   0.123E-01    0.123E-02
DAV:   5    -0.385946404487E+02   -0.16842E-05   -0.39812E-05 10964   0.490E-02    0.605E-03
DAV:   6    -0.385946404889E+02   -0.40221E-07   -0.54137E-06 14024   0.221E-02    0.387E-03
DAV:   7    -0.385946403645E+02    0.12442E-06   -0.10470E-06 12164   0.117E-02    0.193E-03
DAV:   8    -0.385946403906E+02   -0.26114E-07   -0.72488E-07 13856   0.611E-03    0.993E-04
DAV:   9    -0.385946403887E+02    0.18467E-08   -0.10117E-07 11760   0.336E-03    0.447E-04
DAV:  10    -0.385946403915E+02   -0.27244E-08   -0.36866E-08  9796   0.137E-03
  25 F= -.38594640E+02 E0= -.38587619E+02  d E =-.181499E-01
 curvature:  -1.25 expect dE=-0.189E+00 dE for cont linesearch -0.226E-08
 trial: gam= 0.12886 g(F)=  0.102E+00 g(S)=  0.488E-01 ort = 0.151E-03 (trialstep = 0.355E-01)
 search vector abs. value=  0.361E+00
 bond charge predicted
       N       E                     dE             d eps       ncg     rms          rms(c)
DAV:   1    -0.386003842227E+02   -0.57438E-02   -0.78434E-02 10016   0.162E+00    0.173E-01
DAV:   2    -0.386000958050E+02    0.28842E-03   -0.26039E-03 11136   0.625E-01    0.922E-02
DAV:   3    -0.385999533322E+02    0.14247E-03   -0.35439E-04 11888   0.230E-01    0.414E-02
DAV:   4    -0.385999270441E+02    0.26288E-04   -0.10301E-04 12028   0.100E-01    0.941E-03
DAV:   5    -0.385999281228E+02   -0.10787E-05   -0.24038E-05 11216   0.484E-02    0.492E-03
DAV:   6    -0.385999280992E+02    0.23600E-07   -0.26920E-06 11804   0.214E-02    0.287E-03
DAV:   7    -0.385999281380E+02   -0.38825E-07   -0.11868E-06 12420   0.944E-03    0.180E-03
DAV:   8    -0.385999280665E+02    0.71560E-07   -0.31571E-07 14444   0.589E-03    0.519E-04
DAV:   9    -0.385999280597E+02    0.67589E-08   -0.87300E-08 10108   0.165E-03
  26 F= -.38599928E+02 E0= -.38593002E+02  d E =-.528767E-02
 ZBRENT: can't locate minimum, use default step
 trial-energy change:   -0.005288  1 .order   -0.005289   -0.005350   -0.005228
 step:   0.1419(harm=  1.5536)  dis= 0.00916  next Energy=   -38.711753 (dE=-0.117E+00)
 bond charge predicted
       N       E                     dE             d eps       ncg     rms          rms(c)
DAV:   1    -0.386191891181E+02   -0.19261E-01   -0.70468E-01 10012   0.485E+00    0.518E-01
DAV:   2    -0.386165773618E+02    0.26118E-02   -0.23331E-02 11152   0.187E+00    0.277E-01
DAV:   3    -0.386152883773E+02    0.12890E-02   -0.32134E-03 11868   0.691E-01    0.124E-01
DAV:   4    -0.386150530260E+02    0.23535E-03   -0.92852E-04 11892   0.303E-01    0.284E-02
DAV:   5    -0.386150632249E+02   -0.10199E-04   -0.21690E-04 11132   0.146E-01    0.148E-02
DAV:   6    -0.386150632277E+02   -0.28531E-08   -0.23940E-05 12008   0.638E-02    0.865E-03
DAV:   7    -0.386150639744E+02   -0.74665E-06   -0.10490E-05 12400   0.282E-02    0.532E-03
DAV:   8    -0.386150634965E+02    0.47786E-06   -0.28871E-06 14780   0.177E-02    0.150E-03
DAV:   9    -0.386150635407E+02   -0.44194E-07   -0.75328E-07 10420   0.507E-03    0.105E-03
DAV:  10    -0.386150635157E+02    0.24971E-07   -0.70642E-08 12652   0.237E-03    0.330E-04
DAV:  11    -0.386150635139E+02    0.17762E-08   -0.37387E-08  9704   0.111E-03
  27 F= -.38615064E+02 E0= -.38608419E+02  d E =-.204231E-01
 curvature:  -0.25 expect dE=-0.314E-01 dE for cont linesearch -0.131E-01
 ZBRENT: increasing intervall
 opt :   0.3548  next Energy=   -38.641997 (dE=-0.474E-01)
 bond charge predicted
       N       E                     dE             d eps       ncg     rms          rms(c)
DAV:   1    -0.386586675409E+02   -0.43604E-01   -0.28127E+00 10016   0.966E+00    0.104E+00
DAV:   2    -0.386480674930E+02    0.10600E-01   -0.93286E-02 11184   0.370E+00    0.554E-01
DAV:   3    -0.386428995036E+02    0.51680E-02   -0.13071E-02 11788   0.139E+00    0.247E-01
DAV:   4    -0.386419678686E+02    0.93164E-03   -0.37834E-03 11824   0.610E-01    0.572E-02
DAV:   5    -0.386420082450E+02   -0.40376E-04   -0.86319E-04 11080   0.287E-01    0.298E-02
DAV:   6    -0.386420082524E+02   -0.73455E-08   -0.94264E-05 12096   0.127E-01    0.172E-02
DAV:   7    -0.386420115827E+02   -0.33303E-05   -0.40644E-05 12328   0.560E-02    0.105E-02
DAV:   8    -0.386420099094E+02    0.16733E-05   -0.12333E-05 15184   0.356E-02    0.297E-03
DAV:   9    -0.386420101669E+02   -0.25754E-06   -0.27873E-06 10392   0.107E-02    0.210E-03
DAV:  10    -0.386420101176E+02    0.49251E-07   -0.33393E-07 14596   0.462E-03    0.584E-04
DAV:  11    -0.386420101232E+02   -0.56002E-08   -0.11736E-07 10744   0.224E-03    0.311E-04
DAV:  12    -0.386420101237E+02   -0.44020E-09   -0.80910E-09  6060   0.771E-04
  28 F= -.38642010E+02 E0= -.38635907E+02  d E =-.473697E-01
 curvature:  -0.52 expect dE=-0.504E-01 dE for cont linesearch -0.193E-01
 ZBRENT: increasing intervall
 opt :   0.7807  next Energy=   -38.682329 (dE=-0.877E-01)
 bond charge predicted
       N       E                     dE             d eps       ncg     rms          rms(c)
DAV:   1    -0.387500603311E+02   -0.10805E+00   -0.11212E+01 10024   0.192E+01    0.208E+00
DAV:   2    -0.387067734554E+02    0.43287E-01   -0.37553E-01 11184   0.714E+00    0.111E+00
DAV:   3    -0.386858857068E+02    0.20888E-01   -0.52299E-02 12108   0.285E+00    0.493E-01
DAV:   4    -0.386822618496E+02    0.36239E-02   -0.15823E-02 11520   0.128E+00    0.117E-01
DAV:   5    -0.386824193224E+02   -0.15747E-03   -0.35083E-03 11156   0.555E-01    0.605E-02
DAV:   6    -0.386824189634E+02    0.35908E-06   -0.37112E-04 12364   0.250E-01    0.345E-02
DAV:   7    -0.386824310277E+02   -0.12064E-04   -0.14107E-04 11848   0.111E-01    0.191E-02
DAV:   8    -0.386824274060E+02    0.36218E-05   -0.53679E-05 16008   0.726E-02    0.762E-03
DAV:   9    -0.386824276945E+02   -0.28855E-06   -0.10788E-05 11304   0.281E-02    0.448E-03
DAV:  10    -0.386824277036E+02   -0.90645E-08   -0.31955E-06 13780   0.107E-02    0.125E-03
DAV:  11    -0.386824277511E+02   -0.47489E-07   -0.37208E-07 10404   0.413E-03    0.698E-04
DAV:  12    -0.386824277585E+02   -0.74033E-08   -0.40278E-08 10120   0.167E-03
  29 F= -.38682428E+02 E0= -.38677275E+02  d E =-.877874E-01
 curvature:  -1.09 expect dE=-0.893E-01 dE for cont linesearch -0.162E-01
 ZBRENT: increasing intervall
 opt :   1.6323  next Energy=   -38.708873 (dE=-0.114E+00)
 bond charge predicted
       N       E                     dE             d eps       ncg     rms          rms(c)
DAV:   1    -0.389841697998E+02   -0.30174E+00   -0.44709E+01 10044   0.381E+01    0.416E+00
DAV:   2    -0.388075974624E+02    0.17657E+00   -0.15440E+00 11296   0.133E+01    0.222E+00
DAV:   3    -0.387223995819E+02    0.85198E-01   -0.20373E-01 12452   0.597E+00    0.985E-01
DAV:   4    -0.387080427285E+02    0.14357E-01   -0.63517E-02 11376   0.260E+00    0.248E-01
DAV:   5    -0.387086346814E+02   -0.59195E-03   -0.14895E-02 11224   0.106E+00    0.124E-01
DAV:   6    -0.387086171873E+02    0.17494E-04   -0.13779E-03 12612   0.483E-01    0.684E-02
DAV:   7    -0.387086523176E+02   -0.35130E-04   -0.42797E-04 10864   0.191E-01    0.317E-02
DAV:   8    -0.387086521609E+02    0.15672E-06   -0.11897E-04 15248   0.103E-01    0.126E-02
DAV:   9    -0.387086535779E+02   -0.14170E-05   -0.30423E-05 10888   0.499E-02    0.831E-03
DAV:  10    -0.387086534374E+02    0.14047E-06   -0.11184E-05 14416   0.214E-02    0.335E-03
DAV:  11    -0.387086536886E+02   -0.25121E-06   -0.30275E-06 11520   0.141E-02    0.170E-03
DAV:  12    -0.387086537031E+02   -0.14501E-07   -0.46159E-07 13136   0.532E-03    0.443E-04
DAV:  13    -0.387086537304E+02   -0.27285E-07   -0.71584E-08 10552   0.193E-03    0.232E-04
DAV:  14    -0.387086537355E+02   -0.51596E-08   -0.72293E-09  6188   0.667E-04
  30 F= -.38708654E+02 E0= -.38704663E+02  d E =-.114013E+00
 curvature:  -1.77 expect dE=-0.380E+00 dE for cont linesearch -0.760E-03
 trial: gam= 1.51378 g(F)=  0.190E+00 g(S)=  0.247E-01 ort =-0.124E-01 (trialstep = 0.128E+00)
 search vector abs. value=  0.100E+01
 bond charge predicted
       N       E                     dE             d eps       ncg     rms          rms(c)
DAV:   1    -0.387288018433E+02   -0.20148E-01   -0.31663E+00 10000   0.100E+01    0.953E-01
DAV:   2    -0.387212605574E+02    0.75413E-02   -0.10384E-01 11432   0.324E+00    0.521E-01
DAV:   3    -0.387169015092E+02    0.43590E-02   -0.11307E-02 13424   0.101E+00    0.240E-01
DAV:   4    -0.387162447225E+02    0.65679E-03   -0.31327E-03 11572   0.421E-01    0.746E-02
DAV:   5    -0.387162410641E+02    0.36584E-05   -0.62990E-04 11416   0.206E-01    0.278E-02
DAV:   6    -0.387162408921E+02    0.17201E-06   -0.99000E-05 12568   0.724E-02    0.107E-02
DAV:   7    -0.387162408069E+02    0.85227E-07   -0.16285E-05 12868   0.351E-02    0.557E-03
DAV:   8    -0.387162410634E+02   -0.25653E-06   -0.35658E-06 12404   0.139E-02    0.299E-03
DAV:   9    -0.387162409617E+02    0.10171E-06   -0.13730E-06 16200   0.113E-02    0.131E-03
DAV:  10    -0.387162409479E+02    0.13811E-07   -0.26515E-07 11660   0.459E-03    0.764E-04
DAV:  11    -0.387162409426E+02    0.52764E-08   -0.92612E-08 12780   0.177E-03
  31 F= -.38716241E+02 E0= -.38712377E+02  d E =-.758721E-02
 trial-energy change:   -0.007587  1 .order   -0.007868   -0.024968    0.009232
 step:   0.0919(harm=  0.0931)  dis= 0.01041  next Energy=   -38.717539 (dE=-0.889E-02)
 bond charge predicted
       N       E                     dE             d eps       ncg     rms          rms(c)
DAV:   1    -0.387185070459E+02   -0.22661E-02   -0.24926E-01 10008   0.283E+00    0.268E-01
DAV:   2    -0.387179333804E+02    0.57367E-03   -0.83352E-03 11244   0.944E-01    0.145E-01
DAV:   3    -0.387175903528E+02    0.34303E-03   -0.92269E-04 13264   0.289E-01    0.666E-02
DAV:   4    -0.387175356550E+02    0.54698E-04   -0.25044E-04 11796   0.127E-01    0.210E-02
DAV:   5    -0.387175350178E+02    0.63712E-06   -0.52389E-05 11316   0.631E-02    0.813E-03
DAV:   6    -0.387175349655E+02    0.52373E-07   -0.86231E-06 12956   0.324E-02    0.342E-03
DAV:   7    -0.387175350172E+02   -0.51777E-07   -0.14123E-06 11648   0.161E-02    0.183E-03
DAV:   8    -0.387175351037E+02   -0.86431E-07   -0.51431E-07 14884   0.474E-03    0.112E-03
DAV:   9    -0.387175351204E+02   -0.16756E-07   -0.82735E-08 12984   0.231E-03    0.487E-04
DAV:  10    -0.387175351330E+02   -0.12614E-07   -0.47984E-08 11008   0.136E-03    0.209E-04
DAV:  11    -0.387175351336E+02   -0.59254E-09   -0.59272E-09  5508   0.715E-04
  32 F= -.38717535E+02 E0= -.38713639E+02  d E =-.888140E-02
 curvature:  -0.24 expect dE=-0.214E-01 dE for cont linesearch -0.247E-09
 trial: gam= 0.30989 g(F)=  0.761E-01 g(S)=  0.137E-01 ort = 0.322E-04 (trialstep = 0.120E+00)
 search vector abs. value=  0.186E+00
 bond charge predicted
       N       E                     dE             d eps       ncg     rms          rms(c)
DAV:   1    -0.387302363455E+02   -0.12701E-01   -0.53236E-01 11028   0.462E+00    0.451E-01
DAV:   2    -0.387283925743E+02    0.18438E-02   -0.29384E-02 11476   0.205E+00    0.190E-01
DAV:   3    -0.387279712388E+02    0.42134E-03   -0.23959E-03 12868   0.469E-01    0.955E-02
DAV:   4    -0.387277754497E+02    0.19579E-03   -0.42953E-04 13592   0.245E-01    0.236E-02
DAV:   5    -0.387277764370E+02   -0.98732E-06   -0.14871E-04 10620   0.115E-01    0.108E-02
DAV:   6    -0.387277768421E+02   -0.40511E-06   -0.26849E-05 13444   0.345E-02    0.659E-03
DAV:   7    -0.387277763845E+02    0.45755E-06   -0.38112E-06 13436   0.204E-02    0.330E-03
DAV:   8    -0.387277763818E+02    0.27803E-08   -0.13383E-06 15392   0.866E-03    0.187E-03
DAV:   9    -0.387277763230E+02    0.58751E-07   -0.38188E-07 13144   0.545E-03    0.668E-04
DAV:  10    -0.387277763216E+02    0.13779E-08   -0.19642E-07 12560   0.221E-03    0.731E-04
DAV:  11    -0.387277763038E+02    0.17871E-07   -0.37085E-08 10392   0.160E-03    0.195E-04
DAV:  12    -0.387277763007E+02    0.30282E-08   -0.11187E-08  5988   0.695E-04
  33 F= -.38727776E+02 E0= -.38723926E+02  d E =-.102412E-01
 ZBRENT: can't locate minimum, use default step
 trial-energy change:   -0.010241  1 .order   -0.010243   -0.010811   -0.009676
 step:   0.4818(harm=  1.1479)  dis= 0.02394  next Energy=   -38.769051 (dE=-0.515E-01)
 bond charge predicted
       N       E                     dE             d eps       ncg     rms          rms(c)
DAV:   1    -0.387742084204E+02   -0.46432E-01   -0.47606E+00 10908   0.137E+01    0.136E+00
DAV:   2    -0.387572990570E+02    0.16909E-01   -0.26603E-01 11540   0.613E+00    0.572E-01
DAV:   3    -0.387534955400E+02    0.38035E-02   -0.22302E-02 13296   0.142E+00    0.288E-01
DAV:   4    -0.387517048363E+02    0.17907E-02   -0.38455E-03 13560   0.735E-01    0.706E-02
DAV:   5    -0.387517071201E+02   -0.22838E-05   -0.13286E-03 10624   0.351E-01    0.325E-02
DAV:   6    -0.387517103804E+02   -0.32603E-05   -0.23995E-04 13468   0.104E-01    0.197E-02
DAV:   7    -0.387517067498E+02    0.36306E-05   -0.33277E-05 13248   0.597E-02    0.102E-02
DAV:   8    -0.387517073401E+02   -0.59033E-06   -0.12489E-05 15588   0.264E-02    0.567E-03
DAV:   9    -0.387517069804E+02    0.35971E-06   -0.33324E-06 13024   0.163E-02    0.219E-03
DAV:  10    -0.387517070905E+02   -0.11010E-06   -0.20161E-06 13548   0.702E-03    0.230E-03
DAV:  11    -0.387517069860E+02    0.10449E-06   -0.40486E-07 14660   0.526E-03    0.550E-04
DAV:  12    -0.387517069836E+02    0.24493E-08   -0.10303E-07 11900   0.203E-03    0.251E-04
DAV:  13    -0.387517069840E+02   -0.42701E-09   -0.84970E-09  5948   0.738E-04
  34 F= -.38751707E+02 E0= -.38748003E+02  d E =-.341719E-01
 curvature:  -0.69 expect dE=-0.258E-01 dE for cont linesearch -0.101E-01
 ZBRENT: increasing intervall
 opt :   1.2044  next Energy=   -38.769067 (dE=-0.515E-01)
 bond charge predicted
       N       E                     dE             d eps       ncg     rms          rms(c)
DAV:   1    -0.388622532572E+02   -0.11055E+00   -0.18916E+01 10864   0.268E+01    0.274E+00
DAV:   2    -0.387917242386E+02    0.70529E-01   -0.10727E+00 11528   0.122E+01    0.115E+00
DAV:   3    -0.387765240965E+02    0.15200E-01   -0.95169E-02 13612   0.294E+00    0.583E-01
DAV:   4    -0.387692750734E+02    0.72490E-02   -0.15665E-02 13428   0.151E+00    0.143E-01
DAV:   5    -0.387692517477E+02    0.23326E-04   -0.51973E-03 10612   0.705E-01    0.659E-02
DAV:   6    -0.387692635238E+02   -0.11776E-04   -0.98205E-04 13428   0.215E-01    0.397E-02
DAV:   7    -0.387692490677E+02    0.14456E-04   -0.13799E-04 13492   0.118E-01    0.205E-02
DAV:   8    -0.387692522910E+02   -0.32232E-05   -0.52400E-05 15672   0.525E-02    0.115E-02
DAV:   9    -0.387692510340E+02    0.12570E-05   -0.13118E-05 13044   0.316E-02    0.467E-03
DAV:  10    -0.387692515857E+02   -0.55172E-06   -0.87335E-06 13976   0.144E-02    0.472E-03
DAV:  11    -0.387692512229E+02    0.36283E-06   -0.17575E-06 15112   0.109E-02    0.112E-03
DAV:  12    -0.387692512322E+02   -0.93146E-08   -0.41670E-07 11688   0.422E-03    0.484E-04
DAV:  13    -0.387692512354E+02   -0.31923E-08   -0.52581E-08 11956   0.157E-03
  35 F= -.38769251E+02 E0= -.38765870E+02  d E =-.517161E-01
 curvature:  -1.19 expect dE=-0.120E+00 dE for cont linesearch -0.943E-04
 trial: gam= 1.39899 g(F)=  0.913E-01 g(S)=  0.991E-02 ort =-0.385E-02 (trialstep = 0.138E+00)
 search vector abs. value=  0.455E+00
 bond charge predicted
       N       E                     dE             d eps       ncg     rms          rms(c)
DAV:   1    -0.387819323025E+02   -0.12681E-01   -0.17449E+00 10208   0.803E+00    0.799E-01
DAV:   2    -0.387760995766E+02    0.58327E-02   -0.87067E-02 11108   0.326E+00    0.387E-01
DAV:   3    -0.387742080584E+02    0.18915E-02   -0.71656E-03 13212   0.871E-01    0.199E-01
DAV:   4    -0.387736452527E+02    0.56281E-03   -0.18891E-03 12412   0.443E-01    0.613E-02
DAV:   5    -0.387736376688E+02    0.75839E-05   -0.47524E-04 11440   0.224E-01    0.238E-02
DAV:   6    -0.387736368786E+02    0.79017E-06   -0.94586E-05 13560   0.781E-02    0.103E-02
DAV:   7    -0.387736362533E+02    0.62531E-06   -0.14977E-05 12992   0.439E-02    0.455E-03
DAV:   8    -0.387736364068E+02   -0.15355E-06   -0.28357E-06 11128   0.120E-02    0.277E-03
DAV:   9    -0.387736363603E+02    0.46562E-07   -0.10531E-06 14684   0.726E-03    0.140E-03
DAV:  10    -0.387736363080E+02    0.52238E-07   -0.25389E-07 13416   0.457E-03    0.449E-04
DAV:  11    -0.387736363193E+02   -0.11302E-07   -0.72216E-08 11912   0.164E-03    0.282E-04
DAV:  12    -0.387736363241E+02   -0.47417E-08   -0.84511E-09  5848   0.729E-04
  36 F= -.38773636E+02 E0= -.38770374E+02  d E =-.438509E-02
 trial-energy change:   -0.004385  1 .order   -0.004479   -0.013231    0.004274
 step:   0.1035(harm=  0.1043)  dis= 0.00757  next Energy=   -38.774172 (dE=-0.492E-02)
 bond charge predicted
       N       E                     dE             d eps       ncg     rms          rms(c)
DAV:   1    -0.387746812278E+02   -0.10449E-02   -0.10973E-01 10216   0.204E+00    0.200E-01
DAV:   2    -0.387743296803E+02    0.35155E-03   -0.55708E-03 10908   0.836E-01    0.969E-02
DAV:   3    -0.387742104620E+02    0.11922E-03   -0.46629E-04 13072   0.220E-01    0.495E-02
DAV:   4    -0.387741725586E+02    0.37903E-04   -0.11861E-04 12336   0.113E-01    0.152E-02
DAV:   5    -0.387741716792E+02    0.87941E-06   -0.30432E-05 11484   0.566E-02    0.605E-03
DAV:   6    -0.387741714706E+02    0.20862E-06   -0.61982E-06 13568   0.201E-02    0.259E-03
DAV:   7    -0.387741714686E+02    0.19322E-08   -0.92962E-07 13044   0.112E-02    0.113E-03
DAV:   8    -0.387741715128E+02   -0.44196E-07   -0.19658E-07 12164   0.310E-03    0.702E-04
DAV:   9    -0.387741715338E+02   -0.20932E-07   -0.70101E-08 11788   0.192E-03    0.377E-04
DAV:  10    -0.387741715427E+02   -0.89385E-08   -0.14547E-08  7072   0.133E-03
  37 F= -.38774172E+02 E0= -.38770879E+02  d E =-.492031E-02
 curvature:  -0.25 expect dE=-0.118E-01 dE for cont linesearch -0.430E-09
 trial: gam= 0.40163 g(F)=  0.393E-01 g(S)=  0.857E-02 ort = 0.281E-04 (trialstep = 0.131E+00)
 search vector abs. value=  0.121E+00
 bond charge predicted
       N       E                     dE             d eps       ncg     rms          rms(c)
DAV:   1    -0.387823869224E+02   -0.82154E-02   -0.40083E-01 10188   0.415E+00    0.441E-01
DAV:   2    -0.387807293417E+02    0.16576E-02   -0.26627E-02 11516   0.190E+00    0.208E-01
DAV:   3    -0.387802247689E+02    0.50457E-03   -0.18243E-03 12880   0.436E-01    0.104E-01
DAV:   4    -0.387800062847E+02    0.21848E-03   -0.37920E-04 14572   0.244E-01    0.219E-02
DAV:   5    -0.387800101399E+02   -0.38552E-05   -0.14293E-04 10544   0.104E-01    0.107E-02
DAV:   6    -0.387800101567E+02   -0.16852E-07   -0.21053E-05 13920   0.317E-02    0.601E-03
DAV:   7    -0.387800097989E+02    0.35781E-06   -0.41789E-06 14252   0.240E-02    0.303E-03
DAV:   8    -0.387800097857E+02    0.13200E-07   -0.91616E-07 12040   0.660E-03    0.166E-03
DAV:   9    -0.387800097641E+02    0.21675E-07   -0.57045E-07 15508   0.656E-03    0.852E-04
DAV:  10    -0.387800097484E+02    0.15672E-07   -0.92097E-08 11996   0.268E-03    0.491E-04
DAV:  11    -0.387800097427E+02    0.56798E-08   -0.36963E-08 10356   0.114E-03
  38 F= -.38780010E+02 E0= -.38776781E+02  d E =-.583820E-02
 ZBRENT: can't locate minimum, use default step
 trial-energy change:   -0.005838  1 .order   -0.005842   -0.006276   -0.005408
 step:   0.5245(harm=  0.9488)  dis= 0.01628  next Energy=   -38.796875 (dE=-0.227E-01)
 bond charge predicted
       N       E                     dE             d eps       ncg     rms          rms(c)
DAV:   1    -0.388141747278E+02   -0.34165E-01   -0.35965E+00 10216   0.123E+01    0.133E+00
DAV:   2    -0.387988000330E+02    0.15375E-01   -0.24040E-01 11432   0.568E+00    0.625E-01
DAV:   3    -0.387941976284E+02    0.46024E-02   -0.16948E-02 12844   0.133E+00    0.313E-01
DAV:   4    -0.387922097237E+02    0.19879E-02   -0.35285E-03 14032   0.733E-01    0.661E-02
DAV:   5    -0.387922429876E+02   -0.33264E-04   -0.13125E-03 10596   0.315E-01    0.327E-02
DAV:   6    -0.387922432095E+02   -0.22188E-06   -0.19383E-04 14004   0.967E-02    0.182E-02
DAV:   7    -0.387922406079E+02    0.26017E-05   -0.39121E-05 14300   0.731E-02    0.932E-03
DAV:   8    -0.387922409455E+02   -0.33763E-06   -0.85775E-06 11924   0.202E-02    0.520E-03
DAV:   9    -0.387922408224E+02    0.12309E-06   -0.55661E-06 15668   0.201E-02    0.261E-03
DAV:  10    -0.387922407641E+02    0.58272E-07   -0.91127E-07 11892   0.807E-03    0.159E-03
DAV:  11    -0.387922407399E+02    0.24240E-07   -0.35249E-07 14300   0.355E-03    0.512E-04
DAV:  12    -0.387922407434E+02   -0.35534E-08   -0.59538E-08 10804   0.262E-03
  39 F= -.38792241E+02 E0= -.38789221E+02  d E =-.180692E-01
 curvature:  -0.88 expect dE=-0.179E-01 dE for cont linesearch -0.314E-02
 ZBRENT: increasing intervall
 opt :   1.3113  next Energy=   -38.792568 (dE=-0.184E-01)
 bond charge predicted
       N       E                     dE             d eps       ncg     rms          rms(c)
DAV:   1    -0.388836119079E+02   -0.91371E-01   -0.14352E+01 10244   0.244E+01    0.268E+00
DAV:   2    -0.388186967189E+02    0.64915E-01   -0.97148E-01 11524   0.114E+01    0.126E+00
DAV:   3    -0.387998028383E+02    0.18894E-01   -0.70296E-02 12608   0.276E+00    0.635E-01
DAV:   4    -0.387917584645E+02    0.80444E-02   -0.15713E-02 14112   0.151E+00    0.137E-01
DAV:   5    -0.387918710611E+02   -0.11260E-03   -0.53958E-03 10704   0.658E-01    0.688E-02
DAV:   6    -0.387918722930E+02   -0.12319E-05   -0.86395E-04 14052   0.203E-01    0.379E-02
DAV:   7    -0.387918613294E+02    0.10964E-04   -0.17332E-04 14368   0.153E-01    0.195E-02
DAV:   8    -0.387918634965E+02   -0.21671E-05   -0.38649E-05 11812   0.429E-02    0.115E-02
DAV:   9    -0.387918625694E+02    0.92706E-06   -0.24877E-05 15808   0.418E-02    0.508E-03
DAV:  10    -0.387918625310E+02    0.38421E-07   -0.41446E-06 11532   0.160E-02    0.347E-03
DAV:  11    -0.387918624294E+02    0.10162E-06   -0.14827E-06 14916   0.779E-03    0.111E-03
DAV:  12    -0.387918624502E+02   -0.20812E-07   -0.27036E-07 11296   0.580E-03    0.692E-04
DAV:  13    -0.387918624573E+02   -0.71236E-08   -0.58345E-08 12136   0.185E-03
  40 F= -.38791862E+02 E0= -.38789303E+02  d E =-.176909E-01
 curvature:  -0.09 expect dE=-0.107E-01 dE for cont linesearch -0.376E-03
 ZBRENT: bracketing found
 ZBRENT: interpolating
 opt :   0.9043  next Energy=   -38.796196 (dE=-0.220E-01)
 bond charge predicted
       N       E                     dE             d eps       ncg     rms          rms(c)
DAV:   1    -0.388201866236E+02   -0.28324E-01   -0.39348E+00 10336   0.134E+01    0.139E+00
DAV:   2    -0.388035196054E+02    0.16667E-01   -0.26365E-01 11528   0.617E+00    0.658E-01
DAV:   3    -0.387985013419E+02    0.50183E-02   -0.18715E-02 12432   0.137E+00    0.327E-01
DAV:   4    -0.387962603482E+02    0.22410E-02   -0.37132E-03 14320   0.797E-01    0.706E-02
DAV:   5    -0.387962950095E+02   -0.34661E-04   -0.14337E-03 10548   0.325E-01    0.336E-02
DAV:   6    -0.387962953436E+02   -0.33411E-06   -0.22089E-04 13800   0.111E-01    0.190E-02
DAV:   7    -0.387962923512E+02    0.29924E-05   -0.35368E-05 13744   0.796E-02    0.891E-03
DAV:   8    -0.387962935436E+02   -0.11924E-05   -0.11131E-05 14648   0.242E-02    0.527E-03
DAV:   9    -0.387962934528E+02    0.90856E-07   -0.59194E-06 14636   0.231E-02    0.261E-03
DAV:  10    -0.387962934838E+02   -0.30989E-07   -0.83073E-07 12144   0.797E-03    0.147E-03
DAV:  11    -0.387962934775E+02    0.62964E-08   -0.33688E-07 13080   0.352E-03    0.464E-04
DAV:  12    -0.387962934886E+02   -0.11104E-07   -0.66568E-08 11560   0.234E-03    0.365E-04
DAV:  13    -0.387962934833E+02    0.52637E-08   -0.13517E-08  6504   0.111E-03
  41 F= -.38796293E+02 E0= -.38793492E+02  d E =-.221219E-01
 curvature:  -0.96 expect dE=-0.436E-01 dE for cont linesearch -0.144E-05
 trial: gam= 1.07220 g(F)=  0.303E-01 g(S)=  0.150E-01 ort = 0.425E-03 (trialstep = 0.187E+00)
 search vector abs. value=  0.186E+00
 bond charge predicted
       N       E                     dE             d eps       ncg     rms          rms(c)
DAV:   1    -0.388029314743E+02   -0.66380E-02   -0.12390E+00  9856   0.618E+00    0.573E-01
DAV:   2    -0.388018497419E+02    0.10817E-02   -0.41460E-02 11080   0.177E+00    0.347E-01
DAV:   3    -0.387997667256E+02    0.20830E-02   -0.34376E-03 13008   0.553E-01    0.129E-01
DAV:   4    -0.387996226952E+02    0.14403E-03   -0.12155E-03 10520   0.259E-01    0.357E-02
DAV:   5    -0.387996224241E+02    0.27109E-06   -0.20750E-04 12296   0.145E-01    0.147E-02
DAV:   6    -0.387996238357E+02   -0.14115E-05   -0.35385E-05 11692   0.723E-02    0.695E-03
DAV:   7    -0.387996241103E+02   -0.27460E-06   -0.52093E-06 13448   0.270E-02    0.396E-03
DAV:   8    -0.387996241582E+02   -0.47894E-07   -0.10836E-06 13236   0.113E-02    0.168E-03
DAV:   9    -0.387996241984E+02   -0.40225E-07   -0.23910E-07 11536   0.531E-03    0.743E-04
DAV:  10    -0.387996241947E+02    0.36762E-08   -0.82151E-08 12504   0.264E-03
  42 F= -.38799624E+02 E0= -.38796849E+02  d E =-.333071E-02
 trial-energy change:   -0.003331  1 .order   -0.003380   -0.008537    0.001777
 step:   0.1538(harm=  0.1545)  dis= 0.00436  next Energy=   -38.799781 (dE=-0.349E-02)
 bond charge predicted
       N       E                     dE             d eps       ncg     rms          rms(c)
DAV:   1    -0.387998837363E+02   -0.25954E-03   -0.38617E-02  9856   0.109E+00    0.101E-01
DAV:   2    -0.387998509706E+02    0.32766E-04   -0.13017E-03 11032   0.322E-01    0.613E-02
DAV:   3    -0.387997854783E+02    0.65492E-04   -0.10906E-04 13128   0.101E-01    0.225E-02
DAV:   4    -0.387997808603E+02    0.46180E-05   -0.38613E-05 10492   0.468E-02    0.626E-03
DAV:   5    -0.387997807713E+02    0.89002E-07   -0.61931E-06 12184   0.242E-02    0.257E-03
DAV:   6    -0.387997808328E+02   -0.61468E-07   -0.10332E-06 12324   0.115E-02    0.115E-03
DAV:   7    -0.387997808510E+02   -0.18263E-07   -0.12846E-07 11576   0.484E-03    0.673E-04
DAV:   8    -0.387997808628E+02   -0.11808E-07   -0.24678E-08  8780   0.128E-03    0.165E-04
DAV:   9    -0.387997808621E+02    0.73442E-09   -0.35376E-09  5548   0.660E-04
  43 F= -.38799781E+02 E0= -.38797001E+02  d E =-.348738E-02
 curvature:  -0.31 expect dE=-0.154E-01 dE for cont linesearch -0.381E-09
 trial: gam= 1.08872 g(F)=  0.407E-01 g(S)=  0.831E-02 ort = 0.150E-04 (trialstep = 0.124E+00)
 search vector abs. value=  0.269E+00
 bond charge predicted
       N       E                     dE             d eps       ncg     rms          rms(c)
DAV:   1    -0.388082130396E+02   -0.84322E-02   -0.74768E-01  9856   0.467E+00    0.478E-01
DAV:   2    -0.388071162990E+02    0.10967E-02   -0.22852E-02 11028   0.134E+00    0.284E-01
DAV:   3    -0.388055810688E+02    0.15352E-02   -0.19268E-03 13192   0.493E-01    0.817E-02
DAV:   4    -0.388055306526E+02    0.50416E-04   -0.81152E-04 10456   0.229E-01    0.214E-02
DAV:   5    -0.388055361343E+02   -0.54816E-05   -0.12747E-04 11256   0.908E-02    0.142E-02
DAV:   6    -0.388055355141E+02    0.62015E-06   -0.72892E-06 12848   0.263E-02    0.612E-03
DAV:   7    -0.388055358393E+02   -0.32522E-06   -0.20219E-06 11608   0.131E-02    0.223E-03
DAV:   8    -0.388055359607E+02   -0.12137E-06   -0.56075E-07 14264   0.805E-03    0.109E-03
DAV:   9    -0.388055359805E+02   -0.19795E-07   -0.11098E-07 11472   0.448E-03    0.614E-04
DAV:  10    -0.388055359887E+02   -0.81650E-08   -0.66389E-08 12696   0.163E-03
  44 F= -.38805536E+02 E0= -.38802710E+02  d E =-.575513E-02
 ZBRENT: can't locate minimum, use default step
 trial-energy change:   -0.005755  1 .order   -0.005755   -0.006089   -0.005420
 step:   0.4971(harm=  1.1319)  dis= 0.01328  next Energy=   -38.827508 (dE=-0.277E-01)
 bond charge predicted
       N       E                     dE             d eps       ncg     rms          rms(c)
DAV:   1    -0.388425154759E+02   -0.36979E-01   -0.67334E+00  9856   0.141E+01    0.143E+00
DAV:   2    -0.388331034902E+02    0.94120E-02   -0.20953E-01 11028   0.407E+00    0.857E-01
DAV:   3    -0.388193492454E+02    0.13754E-01   -0.17711E-02 13568   0.158E+00    0.258E-01
DAV:   4    -0.388187376565E+02    0.61159E-03   -0.74255E-03 10560   0.754E-01    0.669E-02
DAV:   5    -0.388187972301E+02   -0.59574E-04   -0.13510E-03 11212   0.287E-01    0.429E-02
DAV:   6    -0.388187910067E+02    0.62234E-05   -0.74365E-05 12920   0.811E-02    0.233E-02
DAV:   7    -0.388187930472E+02   -0.20405E-05   -0.24422E-05 11340   0.445E-02    0.703E-03
DAV:   8    -0.388187937695E+02   -0.72231E-06   -0.84671E-06 14632   0.295E-02    0.372E-03
DAV:   9    -0.388187939250E+02   -0.15547E-06   -0.13193E-06 11492   0.143E-02    0.238E-03
DAV:  10    -0.388187939463E+02   -0.21329E-07   -0.73685E-07 14856   0.575E-03    0.615E-04
DAV:  11    -0.388187939795E+02   -0.33166E-07   -0.91568E-08 11116   0.222E-03    0.390E-04
DAV:  12    -0.388187939855E+02   -0.59949E-08   -0.13753E-08  6972   0.814E-04
  45 F= -.38818794E+02 E0= -.38815856E+02  d E =-.190131E-01
 curvature:  -1.87 expect dE=-0.501E-01 dE for cont linesearch -0.530E-02
 ZBRENT: increasing intervall
 opt :   1.2428  next Energy=   -38.827407 (dE=-0.276E-01)
 bond charge predicted
       N       E                     dE             d eps       ncg     rms          rms(c)
DAV:   1    -0.389180129039E+02   -0.99219E-01   -0.26967E+01  9856   0.282E+01    0.288E+00
DAV:   2    -0.388856614108E+02    0.32351E-01   -0.88917E-01 11104   0.822E+00    0.174E+00
DAV:   3    -0.388310200953E+02    0.54641E-01   -0.70968E-02 13964   0.341E+00    0.580E-01
DAV:   4    -0.388269791831E+02    0.40409E-02   -0.31292E-02 10624   0.164E+00    0.148E-01
DAV:   5    -0.388272466377E+02   -0.26745E-03   -0.71444E-03 12308   0.659E-01    0.897E-02
DAV:   6    -0.388272242059E+02    0.22432E-04   -0.45840E-04 11760   0.187E-01    0.563E-02
DAV:   7    -0.388272275912E+02   -0.33853E-05   -0.16883E-04 12012   0.118E-01    0.155E-02
DAV:   8    -0.388272286140E+02   -0.10228E-05   -0.46051E-05 11904   0.633E-02    0.780E-03
DAV:   9    -0.388272303104E+02   -0.16964E-05   -0.10741E-05 14184   0.258E-02    0.641E-03
DAV:  10    -0.388272300519E+02    0.25849E-06   -0.30402E-06 14488   0.137E-02    0.214E-03
DAV:  11    -0.388272301732E+02   -0.12128E-06   -0.10523E-06 11732   0.611E-03    0.139E-03
DAV:  12    -0.388272302093E+02   -0.36127E-07   -0.28791E-07 13904   0.363E-03    0.582E-04
DAV:  13    -0.388272302160E+02   -0.67198E-08   -0.48232E-08 10636   0.184E-03
  46 F= -.38827230E+02 E0= -.38824203E+02  d E =-.274494E-01
 curvature:  -3.05 expect dE=-0.199E+00 dE for cont linesearch -0.241E-03
 trial: gam= 1.39691 g(F)=  0.476E-01 g(S)=  0.176E-01 ort =-0.461E-02 (trialstep = 0.162E+00)
 search vector abs. value=  0.577E+00
 bond charge predicted
       N       E                     dE             d eps       ncg     rms          rms(c)
DAV:   1    -0.388464046957E+02   -0.19174E-01   -0.26801E+00  9896   0.964E+00    0.105E+00
DAV:   2    -0.388394492483E+02    0.69554E-02   -0.12189E-01 10732   0.385E+00    0.585E-01
DAV:   3    -0.388345604427E+02    0.48888E-02   -0.10973E-02 13052   0.110E+00    0.256E-01
DAV:   4    -0.388334072514E+02    0.11532E-02   -0.26706E-03 12312   0.618E-01    0.434E-02
DAV:   5    -0.388334738362E+02   -0.66585E-04   -0.97339E-04 10636   0.245E-01    0.265E-02
DAV:   6    -0.388334728037E+02    0.10325E-05   -0.55399E-05 13472   0.692E-02    0.129E-02
DAV:   7    -0.388334730545E+02   -0.25074E-06   -0.10552E-05 12364   0.431E-02    0.487E-03
DAV:   8    -0.388334736583E+02   -0.60384E-06   -0.46495E-06 14676   0.150E-02    0.300E-03
DAV:   9    -0.388334735815E+02    0.76847E-07   -0.80269E-07 12976   0.913E-03    0.146E-03
DAV:  10    -0.388334736693E+02   -0.87870E-07   -0.38883E-07 13440   0.458E-03    0.711E-04
DAV:  11    -0.388334736739E+02   -0.45479E-08   -0.56220E-08 12320   0.199E-03
  47 F= -.38833474E+02 E0= -.38830309E+02  d E =-.624346E-02
 trial-energy change:   -0.006243  1 .order   -0.006274   -0.009535   -0.003014
 step:   0.2404(harm=  0.2371)  dis= 0.00838  next Energy=   -38.834197 (dE=-0.697E-02)
 bond charge predicted
       N       E                     dE             d eps       ncg     rms          rms(c)
DAV:   1    -0.388371871983E+02   -0.37135E-02   -0.62368E-01  9896   0.462E+00    0.504E-01
DAV:   2    -0.388355680161E+02    0.16192E-02   -0.28077E-02 10764   0.184E+00    0.282E-01
DAV:   3    -0.388344234036E+02    0.11446E-02   -0.25178E-03 13072   0.530E-01    0.123E-01
DAV:   4    -0.388341542059E+02    0.26920E-03   -0.61801E-04 11696   0.296E-01    0.206E-02
DAV:   5    -0.388341707377E+02   -0.16532E-04   -0.23288E-04 10644   0.121E-01    0.128E-02
DAV:   6    -0.388341705718E+02    0.16595E-06   -0.12748E-05 13660   0.313E-02    0.596E-03
DAV:   7    -0.388341706752E+02   -0.10343E-06   -0.24277E-06 12600   0.207E-02    0.228E-03
DAV:   8    -0.388341708450E+02   -0.16982E-06   -0.91675E-07 13408   0.634E-03    0.139E-03
DAV:   9    -0.388341708310E+02    0.14034E-07   -0.16742E-07 13176   0.431E-03    0.590E-04
DAV:  10    -0.388341708627E+02   -0.31725E-07   -0.70008E-08 11608   0.221E-03    0.344E-04
DAV:  11    -0.388341708657E+02   -0.30204E-08   -0.93253E-09  6208   0.893E-04
  48 F= -.38834171E+02 E0= -.38830938E+02  d E =-.694065E-02
 curvature:  -1.16 expect dE=-0.117E+00 dE for cont linesearch -0.855E-06
 trial: gam= 1.41031 g(F)=  0.948E-01 g(S)=  0.584E-02 ort =-0.652E-03 (trialstep = 0.823E-01)
 search vector abs. value=  0.125E+01
 bond charge predicted
       N       E                     dE             d eps       ncg     rms          rms(c)
DAV:   1    -0.388473778012E+02   -0.13207E-01   -0.15201E+00  9896   0.716E+00    0.766E-01
DAV:   2    -0.388439164550E+02    0.34613E-02   -0.68513E-02 10680   0.273E+00    0.424E-01
DAV:   3    -0.388413972027E+02    0.25193E-02   -0.61505E-03 13096   0.839E-01    0.188E-01
DAV:   4    -0.388408042266E+02    0.59298E-03   -0.16308E-03 12500   0.443E-01    0.384E-02
DAV:   5    -0.388408321907E+02   -0.27964E-04   -0.50221E-04 10664   0.178E-01    0.207E-02
DAV:   6    -0.388408309366E+02    0.12540E-05   -0.39847E-05 13640   0.475E-02    0.874E-03
DAV:   7    -0.388408310211E+02   -0.84513E-07   -0.77191E-06 13112   0.311E-02    0.388E-03
DAV:   8    -0.388408313919E+02   -0.37080E-06   -0.22078E-06 13060   0.109E-02    0.241E-03
DAV:   9    -0.388408313949E+02   -0.30018E-08   -0.60612E-07 13740   0.809E-03    0.716E-04
DAV:  10    -0.388408314434E+02   -0.48455E-07   -0.10370E-07 10772   0.343E-03    0.422E-04
DAV:  11    -0.388408314490E+02   -0.56343E-08   -0.17070E-08  7388   0.107E-03
  49 F= -.38840831E+02 E0= -.38837447E+02  d E =-.666058E-02
 trial-energy change:   -0.006661  1 .order   -0.006658   -0.008209   -0.005108
 step:   0.2179(harm=  0.2179)  dis= 0.01294  next Energy=   -38.845035 (dE=-0.109E-01)
 bond charge predicted
       N       E                     dE             d eps       ncg     rms          rms(c)
DAV:   1    -0.388623579644E+02   -0.21527E-01   -0.41210E+00  9900   0.118E+01    0.126E+00
DAV:   2    -0.388533393167E+02    0.90186E-02   -0.18581E-01 10664   0.447E+00    0.699E-01
DAV:   3    -0.388464947443E+02    0.68446E-02   -0.16513E-02 13240   0.138E+00    0.308E-01
DAV:   4    -0.388448981344E+02    0.15966E-02   -0.43478E-03 12400   0.723E-01    0.631E-02
DAV:   5    -0.388449738570E+02   -0.75723E-04   -0.13704E-03 10668   0.293E-01    0.336E-02
DAV:   6    -0.388449707032E+02    0.31538E-05   -0.10453E-04 13376   0.817E-02    0.148E-02
DAV:   7    -0.388449709658E+02   -0.26255E-06   -0.19013E-05 13488   0.507E-02    0.628E-03
DAV:   8    -0.388449718303E+02   -0.86458E-06   -0.55668E-06 13160   0.172E-02    0.368E-03
DAV:   9    -0.388449718558E+02   -0.25466E-07   -0.15270E-06 13936   0.125E-02    0.121E-03
DAV:  10    -0.388449719456E+02   -0.89789E-07   -0.23139E-07 10752   0.512E-03    0.645E-04
DAV:  11    -0.388449719542E+02   -0.86197E-08   -0.63588E-08 11440   0.177E-03
  50 F= -.38844972E+02 E0= -.38841317E+02  d E =-.108011E-01
 curvature:  -1.36 expect dE=-0.308E-01 dE for cont linesearch -0.113E-05
 trial: gam= 0.31793 g(F)=  0.179E-01 g(S)=  0.466E-02 ort =-0.102E-02 (trialstep = 0.109E+00)
 search vector abs. value=  0.148E+00
 bond charge predicted
       N       E                     dE             d eps       ncg     rms          rms(c)
DAV:   1    -0.388475703775E+02   -0.25984E-02   -0.31769E-01  9948   0.333E+00    0.332E-01
DAV:   2    -0.388472425946E+02    0.32778E-03   -0.15542E-02 10572   0.130E+00    0.185E-01
DAV:   3    -0.388467877468E+02    0.45485E-03   -0.15206E-03 13960   0.362E-01    0.831E-02
DAV:   4    -0.388466690995E+02    0.11865E-03   -0.26213E-04 13852   0.206E-01    0.153E-02
DAV:   5    -0.388466756772E+02   -0.65777E-05   -0.99186E-05 10788   0.801E-02    0.864E-03
DAV:   6    -0.388466756824E+02   -0.52441E-08   -0.62642E-06 13052   0.223E-02    0.380E-03
DAV:   7    -0.388466757664E+02   -0.84044E-07   -0.92599E-07 12888   0.148E-02    0.153E-03
DAV:   8    -0.388466758537E+02   -0.87238E-07   -0.32145E-07 13832   0.445E-03    0.769E-04
DAV:   9    -0.388466758504E+02    0.32769E-08   -0.61733E-08 12072   0.266E-03
  51 F= -.38846676E+02 E0= -.38842933E+02  d E =-.170390E-02
 trial-energy change:   -0.001704  1 .order   -0.001708   -0.002437   -0.000979
 step:   0.1851(harm=  0.1829)  dis= 0.00495  next Energy=   -38.847013 (dE=-0.204E-02)
 bond charge predicted
       N       E                     dE             d eps       ncg     rms          rms(c)
DAV:   1    -0.388474368042E+02   -0.76095E-03   -0.15201E-01  9948   0.230E+00    0.229E-01
DAV:   2    -0.388472789832E+02    0.15782E-03   -0.73963E-03 10556   0.895E-01    0.128E-01
DAV:   3    -0.388470605634E+02    0.21842E-03   -0.72313E-04 13944   0.251E-01    0.575E-02
DAV:   4    -0.388470036868E+02    0.56877E-04   -0.12547E-04 13792   0.142E-01    0.106E-02
DAV:   5    -0.388470068754E+02   -0.31886E-05   -0.47460E-05 10776   0.551E-02    0.596E-03
DAV:   6    -0.388470069180E+02   -0.42605E-07   -0.29484E-06 13196   0.150E-02    0.259E-03
DAV:   7    -0.388470069755E+02   -0.57471E-07   -0.43968E-07 12852   0.102E-02    0.105E-03
DAV:   8    -0.388470070267E+02   -0.51251E-07   -0.14569E-07 13236   0.296E-03    0.527E-04
DAV:   9    -0.388470070249E+02    0.18108E-08   -0.26419E-08  8108   0.187E-03
  52 F= -.38847007E+02 E0= -.38843202E+02  d E =-.203507E-02
 curvature:  -0.61 expect dE=-0.980E-02 dE for cont linesearch -0.941E-07
 trial: gam= 0.71195 g(F)=  0.116E-01 g(S)=  0.453E-02 ort =-0.152E-03 (trialstep = 0.125E+00)
 search vector abs. value=  0.909E-01
 bond charge predicted
       N       E                     dE             d eps       ncg     rms          rms(c)
DAV:   1    -0.388488019029E+02   -0.17949E-02   -0.25796E-01 10024   0.283E+00    0.246E-01
DAV:   2    -0.388488842142E+02   -0.82311E-04   -0.10120E-02 10592   0.912E-01    0.146E-01
DAV:   3    -0.388485383072E+02    0.34591E-03   -0.96715E-04 14568   0.311E-01    0.563E-02
DAV:   4    -0.388484985764E+02    0.39731E-04   -0.22046E-04 10676   0.170E-01    0.134E-02
DAV:   5    -0.388485023715E+02   -0.37951E-05   -0.61918E-05 11092   0.803E-02    0.815E-03
DAV:   6    -0.388485023618E+02    0.97243E-08   -0.59237E-06 11596   0.328E-02    0.400E-03
DAV:   7    -0.388485023951E+02   -0.33330E-07   -0.11872E-06 13700   0.154E-02    0.173E-03
DAV:   8    -0.388485024505E+02   -0.55399E-07   -0.32214E-07 10976   0.420E-03    0.725E-04
DAV:   9    -0.388485024639E+02   -0.13374E-07   -0.81638E-08 11588   0.209E-03    0.405E-04
DAV:  10    -0.388485024598E+02    0.41418E-08   -0.18347E-08  6868   0.128E-03
  53 F= -.38848502E+02 E0= -.38844639E+02  d E =-.149543E-02
 trial-energy change:   -0.001495  1 .order   -0.001497   -0.001998   -0.000997
 step:   0.2487(harm=  0.2487)  dis= 0.00529  next Energy=   -38.849001 (dE=-0.199E-02)
 bond charge predicted
       N       E                     dE             d eps       ncg     rms          rms(c)
DAV:   1    -0.388493000825E+02   -0.79762E-03   -0.25605E-01 10032   0.282E+00    0.245E-01
DAV:   2    -0.388493788980E+02   -0.78816E-04   -0.10029E-02 10576   0.908E-01    0.146E-01
DAV:   3    -0.388490357604E+02    0.34314E-03   -0.95785E-04 14608   0.308E-01    0.561E-02
DAV:   4    -0.388489960504E+02    0.39710E-04   -0.21830E-04 10688   0.168E-01    0.134E-02
DAV:   5    -0.388489998020E+02   -0.37516E-05   -0.61276E-05 11084   0.799E-02    0.809E-03
DAV:   6    -0.388489997980E+02    0.40250E-08   -0.58674E-06 11624   0.326E-02    0.400E-03
DAV:   7    -0.388489998302E+02   -0.32162E-07   -0.11657E-06 13740   0.152E-02    0.173E-03
DAV:   8    -0.388489998855E+02   -0.55379E-07   -0.31663E-07 10940   0.414E-03    0.720E-04
DAV:   9    -0.388489998992E+02   -0.13637E-07   -0.79129E-08 11356   0.210E-03    0.396E-04
DAV:  10    -0.388489998952E+02    0.39308E-08   -0.18189E-08  6788   0.129E-03
  54 F= -.38849000E+02 E0= -.38845074E+02  d E =-.199287E-02
 curvature:  -0.71 expect dE=-0.798E-02 dE for cont linesearch -0.145E-07
 trial: gam= 0.71467 g(F)=  0.835E-02 g(S)=  0.297E-02 ort = 0.432E-04 (trialstep = 0.149E+00)
 search vector abs. value=  0.578E-01
 bond charge predicted
[...]
DAV:   8    -0.389848817844E+02   -0.24780E-07   -0.20070E-07 10472   0.349E-03    0.826E-04
DAV:   9    -0.389848817904E+02   -0.59131E-08   -0.78627E-08 12404   0.221E-03
 282 F= -.38984882E+02 E0= -.38982243E+02  d E =-.332813E-03
 curvature:  -0.97 expect dE=-0.586E-03 dE for cont linesearch -0.148E-09
 trial: gam= 1.43957 g(F)=  0.547E-03 g(S)=  0.574E-04 ort = 0.409E-06 (trialstep = 0.127E+00)
 search vector abs. value=  0.288E-02
 bond charge predicted
       N       E                     dE             d eps       ncg     rms          rms(c)
DAV:   1    -0.389849372726E+02   -0.55488E-04   -0.87954E-03 10016   0.548E-01    0.461E-02
DAV:   2    -0.389849298858E+02    0.73868E-05   -0.34314E-04 11260   0.210E-01    0.260E-02
DAV:   3    -0.389849228292E+02    0.70566E-05   -0.31061E-05 12636   0.541E-02    0.133E-02
DAV:   4    -0.389849200206E+02    0.28086E-05   -0.55906E-06 13020   0.312E-02    0.273E-03
DAV:   5    -0.389849201769E+02   -0.15633E-06   -0.23485E-06 10756   0.136E-02    0.119E-03
DAV:   6    -0.389849201642E+02    0.12743E-07   -0.23924E-07 13476   0.350E-03    0.676E-04
DAV:   7    -0.389849201535E+02    0.10681E-07   -0.50933E-08 11484   0.263E-03    0.337E-04
DAV:   8    -0.389849201513E+02    0.21873E-08   -0.94891E-09  5996   0.913E-04
 283 F= -.38984920E+02 E0= -.38982283E+02  d E =-.383609E-04
 trial-energy change:   -0.000038  1 .order   -0.000038   -0.000077    0.000000
 step:   0.1267(harm=  0.1267)  dis= 0.00045  next Energy=   -38.984920 (dE=-0.383E-04)
 bond charge predicted
       N       E                     dE             d eps       ncg     rms          rms(c)
DAV:   1    -0.389849201510E+02    0.25248E-08   -0.11062E-07 10040   0.197E-03    0.173E-04
DAV:   2    -0.389849201510E+02   -0.73214E-10   -0.49731E-09  5104   0.735E-04
 284 F= -.38984920E+02 E0= -.38982283E+02  d E =-.383607E-04
 curvature:  -0.30 expect dE=-0.153E-03 dE for cont linesearch -0.110E-09
 trial: gam= 0.83876 g(F)=  0.413E-03 g(S)=  0.955E-04 ort = 0.102E-05 (trialstep = 0.127E+00)
 search vector abs. value=  0.253E-02
 bond charge predicted
       N       E                     dE             d eps       ncg     rms          rms(c)
DAV:   1    -0.389849889225E+02   -0.68772E-04   -0.77878E-03 10012   0.477E-01    0.310E-02
DAV:   2    -0.389849894400E+02   -0.51750E-06   -0.14987E-04 10984   0.110E-01    0.189E-02
DAV:   3    -0.389849826336E+02    0.68064E-05   -0.13453E-05 14004   0.374E-02    0.424E-03
DAV:   4    -0.389849826939E+02   -0.60284E-07   -0.39590E-06 10540   0.167E-02    0.145E-03
DAV:   5    -0.389849827180E+02   -0.24085E-07   -0.41299E-07 11748   0.652E-03    0.969E-04
DAV:   6    -0.389849827178E+02    0.14916E-09   -0.48910E-08  9824   0.440E-03
 285 F= -.38984983E+02 E0= -.38982333E+02  d E =-.625668E-04
 ZBRENT: can't locate minimum, use default step
 trial-energy change:   -0.000063  1 .order   -0.000063   -0.000065   -0.000061
 step:   0.5082(harm=  2.0705)  dis= 0.00192  next Energy=   -38.985447 (dE=-0.527E-03)
 bond charge predicted
       N       E                     dE             d eps       ncg     rms          rms(c)
DAV:   1    -0.389852025736E+02   -0.21986E-03   -0.70094E-02 10012   0.143E+00    0.930E-02
DAV:   2    -0.389852080837E+02   -0.55101E-05   -0.13524E-03 10968   0.329E-01    0.569E-02
DAV:   3    -0.389851473461E+02    0.60738E-04   -0.12149E-04 14028   0.113E-01    0.127E-02
DAV:   4    -0.389851478546E+02   -0.50844E-06   -0.35905E-05 10532   0.507E-02    0.436E-03
DAV:   5    -0.389851480512E+02   -0.19666E-06   -0.37108E-06 11744   0.193E-02    0.291E-03
DAV:   6    -0.389851480328E+02    0.18413E-07   -0.45016E-07 12756   0.131E-02    0.116E-03
DAV:   7    -0.389851480462E+02   -0.13385E-07   -0.12567E-07 12880   0.504E-03    0.444E-04
DAV:   8    -0.389851480486E+02   -0.24402E-08   -0.18482E-08  6820   0.137E-03
 286 F= -.38985148E+02 E0= -.38982460E+02  d E =-.227898E-03
 curvature:  -1.82 expect dE=-0.607E-03 dE for cont linesearch -0.109E-03
 ZBRENT: increasing intervall
 opt :   1.2704  next Energy=   -38.985377 (dE=-0.457E-03)
 bond charge predicted
       N       E                     dE             d eps       ncg     rms          rms(c)
DAV:   1    -0.389855907473E+02   -0.44270E-03   -0.28034E-01 10012   0.286E+00    0.186E-01
DAV:   2    -0.389856159818E+02   -0.25234E-04   -0.54331E-03 10952   0.656E-01    0.114E-01
DAV:   3    -0.389853737925E+02    0.24219E-03   -0.48771E-04 14124   0.225E-01    0.253E-02
DAV:   4    -0.389853757736E+02   -0.19812E-05   -0.14358E-04 10544   0.101E-01    0.870E-03
DAV:   5    -0.389853764797E+02   -0.70608E-06   -0.14263E-05 11748   0.368E-02    0.574E-03
DAV:   6    -0.389853763909E+02    0.88839E-07   -0.16360E-06 12888   0.243E-02    0.227E-03
DAV:   7    -0.389853764371E+02   -0.46214E-07   -0.46564E-07 12832   0.972E-03    0.859E-04
DAV:   8    -0.389853764468E+02   -0.97111E-08   -0.81189E-08 11328   0.241E-03
 287 F= -.38985376E+02 E0= -.38982608E+02  d E =-.456296E-03
 curvature:  -3.83 expect dE=-0.128E-02 dE for cont linesearch -0.636E-04
 ZBRENT: increasing intervall
 opt :   2.7948  next Energy=   -38.985409 (dE=-0.489E-03)
 bond charge predicted
       N       E                     dE             d eps       ncg     rms          rms(c)
DAV:   1    -0.389862557985E+02   -0.87936E-03   -0.11214E+00 10020   0.572E+00    0.372E-01
DAV:   2    -0.389863769075E+02   -0.12111E-03   -0.21929E-02 10944   0.131E+00    0.228E-01
DAV:   3    -0.389854115694E+02    0.96534E-03   -0.19809E-03 14304   0.456E-01    0.510E-02
DAV:   4    -0.389854180022E+02   -0.64327E-05   -0.57692E-04 10588   0.206E-01    0.174E-02
DAV:   5    -0.389854208617E+02   -0.28595E-05   -0.58209E-05 11692   0.721E-02    0.115E-02
DAV:   6    -0.389854204563E+02    0.40545E-06   -0.60437E-06 12840   0.435E-02    0.454E-03
DAV:   7    -0.389854206382E+02   -0.18196E-06   -0.17285E-06 12612   0.179E-02    0.167E-03
DAV:   8    -0.389854206773E+02   -0.39121E-07   -0.32608E-07 11760   0.434E-03    0.905E-04
DAV:   9    -0.389854206876E+02   -0.10314E-07   -0.37502E-08 10868   0.170E-03    0.258E-04
DAV:  10    -0.389854206906E+02   -0.29268E-08   -0.13047E-08  5944   0.147E-03
 288 F= -.38985421E+02 E0= -.38982480E+02  d E =-.500540E-03
 curvature:  -1.95 expect dE=-0.247E-02 dE for cont linesearch -0.181E-04
 ZBRENT: bracketing found
 ZBRENT: interpolating
 opt :   2.1434  next Energy=   -38.985471 (dE=-0.550E-03)
 bond charge predicted
       N       E                     dE             d eps       ncg     rms          rms(c)
DAV:   1    -0.389856321483E+02   -0.21146E-03   -0.20492E-01 10016   0.245E+00    0.159E-01
DAV:   2    -0.389856459157E+02   -0.13767E-04   -0.39160E-03 10988   0.566E-01    0.973E-02
DAV:   3    -0.389854692055E+02    0.17671E-03   -0.35415E-04 13868   0.194E-01    0.222E-02
DAV:   4    -0.389854701875E+02   -0.98196E-06   -0.10425E-04 10512   0.869E-02    0.753E-03
DAV:   5    -0.389854707803E+02   -0.59281E-06   -0.11657E-05 11624   0.359E-02    0.501E-03
DAV:   6    -0.389854706771E+02    0.10321E-06   -0.14541E-06 12304   0.227E-02    0.203E-03
DAV:   7    -0.389854707033E+02   -0.26259E-07   -0.39657E-07 12872   0.896E-03    0.773E-04
DAV:   8    -0.389854707126E+02   -0.92814E-08   -0.72590E-08 10840   0.223E-03
 289 F= -.38985471E+02 E0= -.38982606E+02  d E =-.550562E-03
 curvature:  -5.39 expect dE=-0.385E-02 dE for cont linesearch -0.654E-08
 trial: gam= 1.42366 g(F)=  0.570E-03 g(S)=  0.145E-03 ort = 0.175E-05 (trialstep = 0.229E+00)
 search vector abs. value=  0.586E-02
 bond charge predicted
       N       E                     dE             d eps       ncg     rms          rms(c)
DAV:   1    -0.389856097704E+02   -0.13907E-03   -0.61549E-02  9920   0.134E+00    0.782E-02
DAV:   2    -0.389856486355E+02   -0.38865E-04   -0.13913E-03 11100   0.328E-01    0.458E-02
DAV:   3    -0.389856192018E+02    0.29434E-04   -0.98203E-05 13244   0.103E-01    0.201E-02
DAV:   4    -0.389856132664E+02    0.59354E-05   -0.24569E-05 11980   0.524E-02    0.433E-03
DAV:   5    -0.389856137310E+02   -0.46452E-06   -0.68871E-06 10672   0.266E-02    0.267E-03
DAV:   6    -0.389856137275E+02    0.34406E-08   -0.73326E-07 12900   0.104E-02    0.133E-03
DAV:   7    -0.389856137186E+02    0.89690E-08   -0.13906E-07 12568   0.540E-03    0.612E-04
DAV:   8    -0.389856137138E+02    0.47257E-08   -0.47178E-08 10804   0.161E-03
 290 F= -.38985614E+02 E0= -.38982722E+02  d E =-.143001E-03
 trial-energy change:   -0.000143  1 .order   -0.000144   -0.000165   -0.000123
 step:   0.8984(harm=  0.8984)  dis= 0.00572  next Energy=   -38.985793 (dE=-0.322E-03)
 bond charge predicted
       N       E                     dE             d eps       ncg     rms          rms(c)
DAV:   1    -0.389857537975E+02   -0.14008E-03   -0.52258E-01  9920   0.391E+00    0.228E-01
DAV:   2    -0.389860916368E+02   -0.33784E-03   -0.11867E-02 11084   0.947E-01    0.133E-01
DAV:   3    -0.389858417863E+02    0.24985E-03   -0.84032E-04 13392   0.296E-01    0.588E-02
DAV:   4    -0.389857908308E+02    0.50955E-04   -0.20315E-04 12016   0.151E-01    0.126E-02
DAV:   5    -0.389857944809E+02   -0.36501E-05   -0.57913E-05 10708   0.774E-02    0.775E-03
DAV:   6    -0.389857944312E+02    0.49664E-07   -0.61358E-06 12808   0.301E-02    0.386E-03
DAV:   7    -0.389857944089E+02    0.22261E-07   -0.11618E-06 12552   0.157E-02    0.179E-03
DAV:   8    -0.389857944217E+02   -0.12765E-07   -0.39170E-07 13996   0.450E-03    0.831E-04
DAV:   9    -0.389857944171E+02    0.45766E-08   -0.52042E-08 11172   0.206E-03
 291 F= -.38985794E+02 E0= -.38982825E+02  d E =-.323705E-03
 curvature:  -3.67 expect dE=-0.249E-01 dE for cont linesearch -0.132E-13
 trial: gam= 9.47750 g(F)=  0.586E-02 g(S)=  0.921E-03 ort =-0.460E-08 (trialstep = 0.399E-02)
 search vector abs. value=  0.533E+00
 bond charge predicted
       N       E                     dE             d eps       ncg     rms          rms(c)
DAV:   1    -0.389858211242E+02   -0.26703E-04   -0.16965E-03  9920   0.225E-01    0.134E-02
DAV:   2    -0.389858220737E+02   -0.94947E-06   -0.41295E-05 10832   0.610E-02    0.751E-03
DAV:   3    -0.389858214604E+02    0.61336E-06   -0.31030E-06 13004   0.182E-02    0.360E-03
DAV:   4    -0.389858212582E+02    0.20212E-06   -0.61183E-07 12248   0.929E-03    0.592E-04
DAV:   5    -0.389858212851E+02   -0.26858E-07   -0.22685E-07 10728   0.444E-03    0.415E-04
DAV:   6    -0.389858212835E+02    0.15357E-08   -0.12341E-08  5948   0.127E-03
 292 F= -.38985821E+02 E0= -.38982850E+02  d E =-.268664E-04
 ZBRENT: can't locate minimum, use default step
 trial-energy change:   -0.000027  1 .order   -0.000027   -0.000027   -0.000027
 step:   0.0160(harm=  0.2601)  dis= 0.00094  next Energy=   -38.986676 (dE=-0.882E-03)
 bond charge predicted
       N       E                     dE             d eps       ncg     rms          rms(c)
DAV:   1    -0.389858993886E+02   -0.78103E-04   -0.15268E-02  9916   0.676E-01    0.402E-02
DAV:   2    -0.389859085132E+02   -0.91246E-05   -0.37301E-04 10824   0.184E-01    0.225E-02
DAV:   3    -0.389859025891E+02    0.59241E-05   -0.28062E-05 13076   0.551E-02    0.108E-02
DAV:   4    -0.389859006313E+02    0.19577E-05   -0.55311E-06 12336   0.281E-02    0.181E-03
DAV:   5    -0.389859008106E+02   -0.17928E-06   -0.20012E-06 10740   0.134E-02    0.124E-03
DAV:   6    -0.389859008065E+02    0.41182E-08   -0.14419E-07 12276   0.404E-03    0.686E-04
DAV:   7    -0.389859008001E+02    0.63574E-08   -0.23423E-08  7180   0.258E-03
 293 F= -.38985901E+02 E0= -.38982921E+02  d E =-.106383E-03
 curvature:  -0.93 expect dE=-0.563E-02 dE for cont linesearch -0.713E-04
 ZBRENT: increasing intervall
 opt :   0.0399  next Energy=   -38.986047 (dE=-0.252E-03)
 bond charge predicted
       N       E                     dE             d eps       ncg     rms          rms(c)
DAV:   1    -0.389860419729E+02   -0.14117E-03   -0.61054E-02  9916   0.135E+00    0.805E-02
DAV:   2    -0.389860789679E+02   -0.36995E-04   -0.14931E-03 10824   0.366E-01    0.450E-02
DAV:   3    -0.389860549426E+02    0.24025E-04   -0.11257E-04 13208   0.110E-01    0.216E-02
DAV:   4    -0.389860469700E+02    0.79727E-05   -0.21888E-05 12432   0.560E-02    0.364E-03
DAV:   5    -0.389860476222E+02   -0.65220E-06   -0.79322E-06 10764   0.267E-02    0.249E-03
DAV:   6    -0.389860476110E+02    0.11146E-07   -0.58417E-07 12196   0.807E-03    0.138E-03
DAV:   7    -0.389860475968E+02    0.14256E-07   -0.10821E-07 12696   0.516E-03    0.591E-04
DAV:   8    -0.389860475948E+02    0.20145E-08   -0.40320E-08 10696   0.161E-03
 294 F= -.38986048E+02 E0= -.38983050E+02  d E =-.253178E-03
 curvature:  -1.91 expect dE=-0.953E-02 dE for cont linesearch -0.120E-03
 ZBRENT: increasing intervall
 opt :   0.0878  next Energy=   -38.986296 (dE=-0.501E-03)
 bond charge predicted
       N       E                     dE             d eps       ncg     rms          rms(c)
DAV:   1    -0.389862709655E+02   -0.22337E-03   -0.24413E-01  9916   0.270E+00    0.161E-01
DAV:   2    -0.389864207912E+02   -0.14983E-03   -0.59841E-03 10816   0.730E-01    0.900E-02
DAV:   3    -0.389863239943E+02    0.96797E-04   -0.45144E-04 13288   0.218E-01    0.432E-02
DAV:   4    -0.389862918679E+02    0.32126E-04   -0.86868E-05 12364   0.112E-01    0.731E-03
DAV:   5    -0.389862943440E+02   -0.24761E-05   -0.31639E-05 10776   0.543E-02    0.499E-03
DAV:   6    -0.389862943185E+02    0.25508E-07   -0.24193E-06 12160   0.166E-02    0.280E-03
DAV:   7    -0.389862942795E+02    0.38935E-07   -0.43819E-07 12820   0.105E-02    0.120E-03
DAV:   8    -0.389862942846E+02   -0.50313E-08   -0.17008E-07 14496   0.325E-03    0.524E-04
DAV:   9    -0.389862942825E+02    0.20291E-08   -0.27153E-08  9144   0.150E-03
 295 F= -.38986294E+02 E0= -.38983263E+02  d E =-.499865E-03
 curvature:  -3.96 expect dE=-0.130E-01 dE for cont linesearch -0.154E-03
 ZBRENT: increasing intervall
 opt :   0.1837  next Energy=   -38.986613 (dE=-0.818E-03)
 bond charge predicted
       N       E                     dE             d eps       ncg     rms          rms(c)
DAV:   1    -0.389865064080E+02   -0.21212E-03   -0.97599E-01  9916   0.539E+00    0.322E-01
DAV:   2    -0.389871146029E+02   -0.60819E-03   -0.24032E-02 10832   0.145E+00    0.180E-01
DAV:   3    -0.389867253125E+02    0.38929E-03   -0.18061E-03 13288   0.431E-01    0.862E-02
DAV:   4    -0.389865972086E+02    0.12810E-03   -0.34808E-04 12416   0.225E-01    0.148E-02
DAV:   5    -0.389866066141E+02   -0.94055E-05   -0.12511E-04 10792   0.112E-01    0.100E-02
DAV:   6    -0.389866065892E+02    0.24955E-07   -0.10221E-05 12048   0.342E-02    0.575E-03
DAV:   7    -0.389866064713E+02    0.11788E-06   -0.17849E-06 12836   0.212E-02    0.247E-03
DAV:   8    -0.389866065181E+02   -0.46873E-07   -0.67294E-07 14588   0.662E-03    0.102E-03
DAV:   9    -0.389866065143E+02    0.38394E-08   -0.11559E-07 12884   0.310E-03    0.495E-04
DAV:  10    -0.389866065082E+02    0.60677E-08   -0.23873E-08  8784   0.169E-03
 296 F= -.38986607E+02 E0= -.38983506E+02  d E =-.812091E-03
 curvature:  -8.19 expect dE=-0.987E-02 dE for cont linesearch -0.656E-04
 ZBRENT: increasing intervall
 opt :   0.3753  next Energy=   -38.986526 (dE=-0.732E-03)
 bond charge predicted
       N       E                     dE             d eps       ncg     rms          rms(c)
DAV:   1    -0.389860811775E+02    0.52534E-03   -0.39014E+00  9920   0.108E+01    0.645E-01
DAV:   2    -0.389885608801E+02   -0.24797E-02   -0.96635E-02 10824   0.284E+00    0.360E-01
DAV:   3    -0.389869884944E+02    0.15724E-02   -0.72423E-03 13284   0.860E-01    0.172E-01
DAV:   4    -0.389864820287E+02    0.50647E-03   -0.14200E-03 12512   0.458E-01    0.307E-02
DAV:   5    -0.389865169390E+02   -0.34910E-04   -0.49236E-04 10872   0.233E-01    0.203E-02
DAV:   6    -0.389865171619E+02   -0.22292E-06   -0.44430E-05 11900   0.701E-02    0.118E-02
DAV:   7    -0.389865167666E+02    0.39527E-06   -0.72965E-06 12848   0.422E-02    0.518E-03
DAV:   8    -0.389865170158E+02   -0.24912E-06   -0.25433E-06 14540   0.134E-02    0.197E-03
DAV:   9    -0.389865170153E+02    0.49431E-09   -0.49864E-07 13156   0.649E-03    0.957E-04
DAV:  10    -0.389865170096E+02    0.56302E-08   -0.86539E-08 11616   0.307E-03
 297 F= -.38986517E+02 E0= -.38983275E+02  d E =-.722593E-03
 curvature:  10.03 expect dE= 0.258E-01 dE for cont linesearch  0.164E-03
 ZBRENT: bracketing found
 ZBRENT: interpolating
 opt :   0.2626  next Energy=   -38.986688 (dE=-0.894E-03)
 bond charge predicted
       N       E                     dE             d eps       ncg     rms          rms(c)
DAV:   1    -0.389865389251E+02   -0.21910E-04   -0.13547E+00  9920   0.640E+00    0.381E-01
DAV:   2    -0.389874023823E+02   -0.86346E-03   -0.33616E-02 10812   0.176E+00    0.213E-01
DAV:   3    -0.389868601990E+02    0.54218E-03   -0.25173E-03 13072   0.520E-01    0.103E-01
DAV:   4    -0.389866713380E+02    0.18886E-03   -0.49027E-04 12200   0.263E-01    0.168E-02
DAV:   5    -0.389866856396E+02   -0.14302E-04   -0.18632E-04 10708   0.120E-01    0.115E-02
DAV:   6    -0.389866852983E+02    0.34129E-06   -0.11068E-05 12936   0.338E-02    0.599E-03
DAV:   7    -0.389866852457E+02    0.52586E-07   -0.22963E-06 12664   0.223E-02    0.253E-03
DAV:   8    -0.389866853671E+02   -0.12140E-06   -0.86011E-07 14524   0.703E-03    0.128E-03
DAV:   9    -0.389866853563E+02    0.10828E-07   -0.14630E-07 13284   0.324E-03    0.584E-04
DAV:  10    -0.389866853716E+02   -0.15254E-07   -0.38317E-08 10172   0.224E-03    0.252E-04
DAV:  11    -0.389866853710E+02    0.53387E-09   -0.84683E-09  5676   0.909E-04
 298 F= -.38986685E+02 E0= -.38983527E+02  d E =-.890954E-03
 curvature:  -5.00 expect dE=-0.439E-02 dE for cont linesearch -0.923E-08
 trial: gam= 0.07344 g(F)=  0.557E-03 g(S)=  0.321E-03 ort =-0.314E-04 (trialstep = 0.557E-01)
 search vector abs. value=  0.375E-02
 bond charge predicted
       N       E                     dE             d eps       ncg     rms          rms(c)
DAV:   1    -0.389867343818E+02   -0.49010E-04   -0.23944E-03  9968   0.295E-01    0.224E-02
DAV:   2    -0.389867337554E+02    0.62637E-06   -0.10909E-04 10728   0.115E-01    0.969E-03
DAV:   3    -0.389867331224E+02    0.63300E-06   -0.76464E-06 13152   0.275E-02    0.502E-03
DAV:   4    -0.389867326976E+02    0.42481E-06   -0.10921E-06 13960   0.123E-02    0.127E-03
DAV:   5    -0.389867327390E+02   -0.41363E-07   -0.39025E-07 10628   0.504E-03    0.475E-04
DAV:   6    -0.389867327405E+02   -0.15521E-08   -0.24867E-08  8452   0.131E-03
 299 F= -.38986733E+02 E0= -.38983568E+02  d E =-.473695E-04
 ZBRENT: can't locate minimum, use default step
 trial-energy change:   -0.000047  1 .order   -0.000047   -0.000049   -0.000046
 step:   0.2229(harm=  0.8980)  dis= 0.00111  next Energy=   -38.987078 (dE=-0.393E-03)
 bond charge predicted
       N       E                     dE             d eps       ncg     rms          rms(c)
DAV:   1    -0.389868728287E+02   -0.14009E-03   -0.21543E-02  9968   0.883E-01    0.672E-02
DAV:   2    -0.389868681004E+02    0.47283E-05   -0.98006E-04 10748   0.345E-01    0.291E-02
DAV:   3    -0.389868613221E+02    0.67783E-05   -0.68802E-05 13164   0.826E-02    0.150E-02
DAV:   4    -0.389868569426E+02    0.43795E-05   -0.98041E-06 14000   0.370E-02    0.378E-03
DAV:   5    -0.389868570522E+02   -0.10960E-06   -0.35034E-06 10624   0.151E-02    0.142E-03
DAV:   6    -0.389868570490E+02    0.31860E-08   -0.24811E-07 12900   0.394E-03    0.764E-04
DAV:   7    -0.389868570387E+02    0.10289E-07   -0.52651E-08 11388   0.270E-03    0.352E-04
DAV:   8    -0.389868570372E+02    0.15657E-08   -0.12532E-08  5876   0.121E-03
 300 F= -.38986857E+02 E0= -.38983672E+02  d E =-.171666E-03
 curvature:  -0.69 expect dE=-0.534E-03 dE for cont linesearch -0.807E-04
 ZBRENT: increasing intervall
 opt :   0.5572  next Energy=   -38.987026 (dE=-0.341E-03)
 writing wavefunctions
Fri Dec 24 01:41:03 CST 2021
