Thu Dec 23 22:21:11 CST 2021
 running on   48 total cores
 distrk:  each k-point on   48 cores,    1 groups
 distr:  one band on   24 cores,    2 groups
 using from now: INCAR     
 vasp.5.3.5 31Mar14 (build Jan 11 2016 19:50:55) complex                        
  
 POSCAR found type information on POSCAR  Ga N  O  Zn
 POSCAR found :  4 types and       8 ions
 scaLAPACK will be used

 ----------------------------------------------------------------------------- 
|                                                                             |
|           W    W    AA    RRRRR   N    N  II  N    N   GGGG   !!!           |
|           W    W   A  A   R    R  NN   N  II  NN   N  G    G  !!!           |
|           W    W  A    A  R    R  N N  N  II  N N  N  G       !!!           |
|           W WW W  AAAAAA  RRRRR   N  N N  II  N  N N  G  GGG   !            |
|           WW  WW  A    A  R   R   N   NN  II  N   NN  G    G                |
|           W    W  A    A  R    R  N    N  II  N    N   GGGG   !!!           |
|                                                                             |
|      For optimal performance we recommend to set                            |
|        NCORE= 4 - approx SQRT( number of cores)                             |
|      NCORE specifies how many cores store one orbital (NPAR=cpu/NCORE).     |
|      This setting can  greatly improve the performance of VASP for DFT.     |
|      The default, NPAR=number of cores might be grossly inefficient         |
|      on modern multi-core architectures or massively parallel machines.     |
|      Do your own testing !!!!                                               |
|      Unfortunately you need to use the default for GW and RPA calculations. |
|      (for HF NCORE is supported but not extensively tested yet)             |
|                                                                             |
 ----------------------------------------------------------------------------- 

 LDA part: xc-table for Pade appr. of Perdew
 POSCAR, INCAR and KPOINTS ok, starting setup
 WARNING: small aliasing (wrap around) errors must be expected
 FFT: planning ...
 WAVECAR not read
 entering main loop
       N       E                     dE             d eps       ncg     rms          rms(c)
DAV:   1     0.896893000384E+03    0.89689E+03   -0.42155E+04 10148   0.322E+03
DAV:   2     0.145360932695E+03   -0.75153E+03   -0.72325E+03  9960   0.770E+02
DAV:   3    -0.259010251076E+02   -0.17126E+03   -0.16649E+03 11416   0.262E+02
DAV:   4    -0.410900909353E+02   -0.15189E+02   -0.14947E+02 11996   0.783E+01
DAV:   5    -0.416050860375E+02   -0.51500E+00   -0.51239E+00 12188   0.140E+01    0.141E+01
DAV:   6    -0.360869630178E+02    0.55181E+01   -0.18756E+01 18728   0.679E+01    0.678E+00
DAV:   7    -0.365115321557E+02   -0.42457E+00   -0.66920E+00 10612   0.194E+01    0.453E+00
DAV:   8    -0.364725788397E+02    0.38953E-01   -0.15060E+00 15696   0.891E+00    0.233E+00
DAV:   9    -0.364418605449E+02    0.30718E-01   -0.55476E-01 13268   0.594E+00    0.144E+00
DAV:  10    -0.364097032083E+02    0.32157E-01   -0.19132E-01 15248   0.434E+00    0.551E-01
DAV:  11    -0.364103699809E+02   -0.66677E-03   -0.28784E-02 12056   0.190E+00    0.265E-01
DAV:  12    -0.364109601617E+02   -0.59018E-03   -0.49356E-03 12704   0.921E-01    0.988E-02
DAV:  13    -0.364112435145E+02   -0.28335E-03   -0.12379E-03 10992   0.428E-01    0.295E-02
DAV:  14    -0.364112682823E+02   -0.24768E-04   -0.19233E-04 12012   0.219E-01    0.185E-02
DAV:  15    -0.364112891279E+02   -0.20846E-04   -0.45999E-05 12092   0.668E-02    0.868E-03
DAV:  16    -0.364113013556E+02   -0.12228E-04   -0.20368E-05 10512   0.452E-02    0.525E-03
DAV:  17    -0.364113024579E+02   -0.11023E-05   -0.51011E-06 13392   0.295E-02    0.239E-03
DAV:  18    -0.364113027382E+02   -0.28032E-06   -0.12582E-06 11500   0.939E-03    0.131E-03
DAV:  19    -0.364113028074E+02   -0.69208E-07   -0.34705E-07 12208   0.485E-03    0.654E-04
DAV:  20    -0.364113028006E+02    0.68035E-08   -0.52273E-08 11336   0.339E-03
   1 F= -.36411303E+02 E0= -.36376459E+02  d E =-.364113E+02
 curvature:   0.00 expect dE= 0.000E+00 dE for cont linesearch  0.000E+00
 trial: gam= 0.00000 g(F)=  0.189E-02 g(S)=  0.202E-02 ort = 0.000E+00 (trialstep = 0.100E+01)
 search vector abs. value=  0.391E-02
 bond charge predicted
       N       E                     dE             d eps       ncg     rms          rms(c)
DAV:   1    -0.364335786658E+02   -0.22276E-01   -0.76124E-01 11056   0.895E+00    0.109E+00
DAV:   2    -0.364179227002E+02    0.15656E-01   -0.13386E-01 11716   0.489E+00    0.467E-01
DAV:   3    -0.364164601323E+02    0.14626E-02   -0.35949E-02 14440   0.186E+00    0.386E-01
DAV:   4    -0.364142194296E+02    0.22407E-02   -0.13472E-02 13220   0.106E+00    0.151E-01
DAV:   5    -0.364137010527E+02    0.51838E-03   -0.15767E-03 14976   0.486E-01    0.408E-02
DAV:   6    -0.364136928458E+02    0.82069E-05   -0.42069E-04 11064   0.198E-01    0.190E-02
DAV:   7    -0.364136926025E+02    0.24328E-06   -0.65508E-05 14404   0.776E-02    0.109E-02
DAV:   8    -0.364136919539E+02    0.64862E-06   -0.60346E-06 13208   0.543E-02    0.520E-03
DAV:   9    -0.364136923510E+02   -0.39712E-06   -0.38549E-06 15716   0.149E-02    0.240E-03
DAV:  10    -0.364136923944E+02   -0.43450E-07   -0.62068E-07 12484   0.779E-03    0.155E-03
DAV:  11    -0.364136925159E+02   -0.12146E-06   -0.25815E-07 12756   0.429E-03    0.588E-04
DAV:  12    -0.364136925205E+02   -0.46080E-08   -0.44236E-08 11076   0.200E-03
   2 F= -.36413693E+02 E0= -.36379041E+02  d E =-.238972E-02
 trial-energy change:   -0.002390  1 .order   -0.002397   -0.003908   -0.000885
 step:   1.2982(harm=  1.2929)  dis= 0.00549  next Energy=   -36.413824 (dE=-0.252E-02)
 bond charge predicted
       N       E                     dE             d eps       ncg     rms          rms(c)
DAV:   1    -0.364155950458E+02   -0.19025E-02   -0.67465E-02 11064   0.265E+00    0.326E-01
DAV:   2    -0.364141966227E+02    0.13984E-02   -0.11884E-02 11748   0.147E+00    0.139E-01
DAV:   3    -0.364140694124E+02    0.12721E-03   -0.31930E-03 14288   0.553E-01    0.114E-01
DAV:   4    -0.364138688061E+02    0.20061E-03   -0.11800E-03 13260   0.319E-01    0.447E-02
DAV:   5    -0.364138227377E+02    0.46068E-04   -0.13724E-04 15040   0.142E-01    0.121E-02
DAV:   6    -0.364138216893E+02    0.10483E-05   -0.36901E-05 11072   0.588E-02    0.566E-03
DAV:   7    -0.364138216631E+02    0.26253E-07   -0.57403E-06 14344   0.228E-02    0.324E-03
DAV:   8    -0.364138216376E+02    0.25525E-07   -0.53211E-07 13288   0.163E-02    0.153E-03
DAV:   9    -0.364138217176E+02   -0.80057E-07   -0.33916E-07 15556   0.439E-03    0.722E-04
DAV:  10    -0.364138217322E+02   -0.14621E-07   -0.52528E-08 11540   0.231E-03    0.463E-04
DAV:  11    -0.364138217626E+02   -0.30419E-07   -0.23901E-08  8740   0.131E-03    0.173E-04
DAV:  12    -0.364138217642E+02   -0.15798E-08   -0.39671E-09  5696   0.685E-04
   3 F= -.36413822E+02 E0= -.36379226E+02  d E =-.251896E-02
 curvature:  -0.65 expect dE=-0.705E-03 dE for cont linesearch -0.134E-07
 trial: gam= 0.28151 g(F)=  0.986E-03 g(S)=  0.105E-03 ort =-0.900E-05 (trialstep = 0.106E+01)
 search vector abs. value=  0.140E-02
 bond charge predicted
       N       E                     dE             d eps       ncg     rms          rms(c)
DAV:   1    -0.364139083869E+02   -0.86624E-04   -0.34581E-01  9996   0.340E+00    0.217E-01
DAV:   2    -0.364146174674E+02   -0.70908E-03   -0.15728E-02 11720   0.109E+00    0.142E-01
DAV:   3    -0.364144885085E+02    0.12896E-03   -0.27199E-03 13024   0.494E-01    0.875E-02
DAV:   4    -0.364143742155E+02    0.11429E-03   -0.52054E-04 12224   0.320E-01    0.420E-02
DAV:   5    -0.364143509750E+02    0.23240E-04   -0.11652E-04 13772   0.107E-01    0.761E-03
DAV:   6    -0.364143528235E+02   -0.18485E-05   -0.27739E-05 10616   0.475E-02    0.511E-03
DAV:   7    -0.364143528876E+02   -0.64047E-07   -0.16657E-06 13660   0.160E-02    0.257E-03
DAV:   8    -0.364143529642E+02   -0.76612E-07   -0.48200E-07 12664   0.162E-02    0.943E-04
DAV:   9    -0.364143530095E+02   -0.45309E-07   -0.16968E-07 11136   0.508E-03    0.359E-04
DAV:  10    -0.364143530124E+02   -0.29213E-08   -0.24715E-08  7380   0.181E-03
   4 F= -.36414353E+02 E0= -.36379732E+02  d E =-.531248E-03
 trial-energy change:   -0.000531  1 .order   -0.000536   -0.001153    0.000081
 step:   0.9882(harm=  0.9898)  dis= 0.00197  next Energy=   -36.414356 (dE=-0.534E-03)
 bond charge predicted
       N       E                     dE             d eps       ncg     rms          rms(c)
DAV:   1    -0.364143521195E+02    0.88999E-06   -0.15711E-03  9996   0.229E-01    0.147E-02
DAV:   2    -0.364143553560E+02   -0.32365E-05   -0.71362E-05 11680   0.728E-02    0.961E-03
DAV:   3    -0.364143547631E+02    0.59296E-06   -0.12373E-05 13012   0.332E-02    0.589E-03
DAV:   4    -0.364143543324E+02    0.43071E-06   -0.23753E-06 12188   0.215E-02    0.284E-03
DAV:   5    -0.364143542697E+02    0.62696E-07   -0.53005E-07 13852   0.716E-03    0.517E-04
DAV:   6    -0.364143542755E+02   -0.57958E-08   -0.12551E-07 10552   0.321E-03    0.345E-04
DAV:   7    -0.364143542690E+02    0.64424E-08   -0.62259E-09  5880   0.112E-03
   5 F= -.36414354E+02 E0= -.36379735E+02  d E =-.532505E-03
 curvature:  -0.63 expect dE=-0.159E-02 dE for cont linesearch -0.833E-09
 trial: gam= 2.29018 g(F)=  0.178E-02 g(S)=  0.727E-03 ort = 0.135E-05 (trialstep = 0.148E+00)
 search vector abs. value=  0.983E-02
 bond charge predicted
       N       E                     dE             d eps       ncg     rms          rms(c)
DAV:   1    -0.364146645298E+02   -0.31025E-03   -0.44478E-02  9980   0.122E+00    0.877E-02
DAV:   2    -0.364147174762E+02   -0.52946E-04   -0.16142E-03 11120   0.355E-01    0.514E-02
DAV:   3    -0.364146964716E+02    0.21005E-04   -0.22532E-04 13872   0.146E-01    0.373E-02
DAV:   4    -0.364146767402E+02    0.19731E-04   -0.11916E-04 13332   0.105E-01    0.141E-02
DAV:   5    -0.364146739444E+02    0.27958E-05   -0.18287E-05 10876   0.560E-02    0.286E-03
DAV:   6    -0.364146742801E+02   -0.33578E-06   -0.48215E-06 11976   0.213E-02    0.232E-03
DAV:   7    -0.364146742444E+02    0.35757E-07   -0.44596E-07 11852   0.102E-02    0.139E-03
DAV:   8    -0.364146741881E+02    0.56251E-07   -0.17794E-07 12288   0.502E-03    0.508E-04
DAV:   9    -0.364146741889E+02   -0.77898E-09   -0.38532E-08  9240   0.245E-03
   6 F= -.36414674E+02 E0= -.36380097E+02  d E =-.319920E-03
 trial-energy change:   -0.000320  1 .order   -0.000319   -0.000372   -0.000267
 step:   0.5248(harm=  0.5248)  dis= 0.00298  next Energy=   -36.415012 (dE=-0.658E-03)
 bond charge predicted
       N       E                     dE             d eps       ncg     rms          rms(c)
DAV:   1    -0.364149593693E+02   -0.28518E-03   -0.28600E-01  9976   0.309E+00    0.222E-01
DAV:   2    -0.364152964792E+02   -0.33711E-03   -0.10343E-02 11128   0.895E-01    0.130E-01
DAV:   3    -0.364151592748E+02    0.13720E-03   -0.14372E-03 13832   0.368E-01    0.944E-02
DAV:   4    -0.364150310401E+02    0.12823E-03   -0.76059E-04 13228   0.266E-01    0.355E-02
DAV:   5    -0.364150137526E+02    0.17288E-04   -0.11752E-04 10904   0.142E-01    0.727E-03
DAV:   6    -0.364150161102E+02   -0.23577E-05   -0.30694E-05 11976   0.542E-02    0.590E-03
DAV:   7    -0.364150159999E+02    0.11032E-06   -0.28963E-06 11960   0.260E-02    0.351E-03
DAV:   8    -0.364150158530E+02    0.14692E-06   -0.11369E-06 12296   0.128E-02    0.128E-03
DAV:   9    -0.364150158580E+02   -0.50163E-08   -0.26330E-07 11400   0.625E-03    0.487E-04
DAV:  10    -0.364150158655E+02   -0.74583E-08   -0.58144E-08 10568   0.204E-03
   7 F= -.36415016E+02 E0= -.36380549E+02  d E =-.661596E-03
 curvature:  -1.03 expect dE=-0.886E-03 dE for cont linesearch -0.342E-08
 trial: gam= 0.33870 g(F)=  0.786E-03 g(S)=  0.746E-04 ort = 0.571E-05 (trialstep = 0.224E+00)
 search vector abs. value=  0.199E-02
 bond charge predicted
       N       E                     dE             d eps       ncg     rms          rms(c)
DAV:   1    -0.364151963838E+02   -0.18053E-03   -0.20645E-02 10060   0.818E-01    0.558E-02
DAV:   2    -0.364152166354E+02   -0.20252E-04   -0.63947E-04 11036   0.221E-01    0.314E-02
DAV:   3    -0.364152034436E+02    0.13192E-04   -0.45104E-05 13940   0.657E-02    0.143E-02
DAV:   4    -0.364152009649E+02    0.24787E-05   -0.19453E-05 13320   0.535E-02    0.786E-03
DAV:   5    -0.364152002268E+02    0.73808E-06   -0.99319E-06 13056   0.314E-02    0.213E-03
DAV:   6    -0.364152002647E+02   -0.37965E-07   -0.10262E-06 10600   0.848E-03    0.133E-03
DAV:   7    -0.364152002662E+02   -0.14848E-08   -0.11223E-07 11760   0.601E-03    0.639E-04
DAV:   8    -0.364152002721E+02   -0.58221E-08   -0.34271E-08  9540   0.295E-03
   8 F= -.36415200E+02 E0= -.36380757E+02  d E =-.184407E-03
 ZBRENT: can't locate minimum, use default step
 trial-energy change:   -0.000184  1 .order   -0.000184   -0.000193   -0.000175
 step:   0.8948(harm=  2.3423)  dis= 0.00261  next Energy=   -36.415653 (dE=-0.637E-03)
 bond charge predicted
       N       E                     dE             d eps       ncg     rms          rms(c)
DAV:   1    -0.364156067216E+02   -0.40646E-03   -0.18579E-01 10064   0.246E+00    0.167E-01
DAV:   2    -0.364157883966E+02   -0.18168E-03   -0.57666E-03 11040   0.664E-01    0.941E-02
DAV:   3    -0.364156703258E+02    0.11807E-03   -0.40553E-04 13924   0.200E-01    0.429E-02
DAV:   4    -0.364156477613E+02    0.22565E-04   -0.16927E-04 13284   0.160E-01    0.228E-02
DAV:   5    -0.364156414969E+02    0.62644E-05   -0.87037E-05 13048   0.935E-02    0.648E-03
DAV:   6    -0.364156418916E+02   -0.39476E-06   -0.90235E-06 10576   0.254E-02    0.399E-03
DAV:   7    -0.364156418821E+02    0.95542E-08   -0.10471E-06 13320   0.183E-02    0.191E-03
DAV:   8    -0.364156419062E+02   -0.24113E-07   -0.30864E-07 11708   0.889E-03    0.647E-04
DAV:   9    -0.364156419227E+02   -0.16491E-07   -0.83889E-08 11652   0.271E-03    0.302E-04
DAV:  10    -0.364156419261E+02   -0.33974E-08   -0.97969E-09  5880   0.883E-04
   9 F= -.36415642E+02 E0= -.36381271E+02  d E =-.626061E-03
 curvature:  -1.44 expect dE=-0.587E-03 dE for cont linesearch -0.204E-03
 ZBRENT: increasing intervall
 opt :   2.2369  next Energy=   -36.416020 (dE=-0.100E-02)
 bond charge predicted
       N       E                     dE             d eps       ncg     rms          rms(c)
DAV:   1    -0.364158708682E+02   -0.22895E-03   -0.74303E-01 10064   0.492E+00    0.334E-01
DAV:   2    -0.364166071725E+02   -0.73630E-03   -0.23140E-02 11072   0.133E+00    0.188E-01
DAV:   3    -0.364161366651E+02    0.47051E-03   -0.16199E-03 13856   0.408E-01    0.859E-02
DAV:   4    -0.364160430552E+02    0.93610E-04   -0.64385E-04 13180   0.317E-01    0.434E-02
DAV:   5    -0.364160218178E+02    0.21237E-04   -0.33415E-04 12888   0.185E-01    0.132E-02
DAV:   6    -0.364160231951E+02   -0.13773E-05   -0.34968E-05 10616   0.519E-02    0.793E-03
DAV:   7    -0.364160231543E+02    0.40805E-07   -0.44316E-06 13280   0.375E-02    0.385E-03
DAV:   8    -0.364160232210E+02   -0.66642E-07   -0.12628E-06 11680   0.182E-02    0.131E-03
DAV:   9    -0.364160232729E+02   -0.51918E-07   -0.35880E-07 14988   0.580E-03    0.637E-04
DAV:  10    -0.364160232816E+02   -0.87389E-08   -0.43847E-08  9780   0.182E-03
  10 F= -.36416023E+02 E0= -.36381799E+02  d E =-.100742E-02
 curvature:  -2.67 expect dE=-0.150E-02 dE for cont linesearch -0.102E-05
 trial: gam= 0.64170 g(F)=  0.456E-03 g(S)=  0.105E-03 ort = 0.275E-04 (trialstep = 0.626E+00)
 search vector abs. value=  0.142E-02
 bond charge predicted
       N       E                     dE             d eps       ncg     rms          rms(c)
DAV:   1    -0.364163894096E+02   -0.36614E-03   -0.11896E-01 10028   0.190E+00    0.117E-01
DAV:   2    -0.364164834853E+02   -0.94076E-04   -0.34194E-03 12084   0.603E-01    0.876E-02
DAV:   3    -0.364164198836E+02    0.63602E-04   -0.73784E-04 13932   0.295E-01    0.517E-02
DAV:   4    -0.364163668694E+02    0.53014E-04   -0.14456E-04 12504   0.118E-01    0.145E-02
DAV:   5    -0.364163663831E+02    0.48626E-06   -0.36048E-05 10772   0.434E-02    0.481E-03
DAV:   6    -0.364163664410E+02   -0.57922E-07   -0.43632E-06 11720   0.267E-02    0.261E-03
DAV:   7    -0.364163664471E+02   -0.60827E-08   -0.81872E-07 11576   0.153E-02    0.130E-03
DAV:   8    -0.364163664561E+02   -0.89949E-08   -0.18766E-07 13732   0.549E-03    0.477E-04
DAV:   9    -0.364163664537E+02    0.24042E-08   -0.37360E-08  8644   0.202E-03
  11 F= -.36416366E+02 E0= -.36382165E+02  d E =-.343172E-03
 ZBRENT: can't locate minimum, use default step
 trial-energy change:   -0.000343  1 .order   -0.000341   -0.000363   -0.000320
 step:   2.5053(harm=  5.2648)  dis= 0.01121  next Energy=   -36.416988 (dE=-0.965E-03)
 bond charge predicted
       N       E                     dE             d eps       ncg     rms          rms(c)
DAV:   1    -0.364173378991E+02   -0.97144E-03   -0.10707E+00 10032   0.568E+00    0.352E-01
DAV:   2    -0.364181887418E+02   -0.85084E-03   -0.30722E-02 12036   0.180E+00    0.263E-01
DAV:   3    -0.364176109250E+02    0.57782E-03   -0.66866E-03 13824   0.896E-01    0.155E-01
DAV:   4    -0.364171331423E+02    0.47778E-03   -0.12975E-03 12376   0.355E-01    0.432E-02
DAV:   5    -0.364171290952E+02    0.40471E-05   -0.32740E-04 10728   0.130E-01    0.143E-02
DAV:   6    -0.364171298030E+02   -0.70775E-06   -0.38813E-05 11788   0.768E-02    0.772E-03
DAV:   7    -0.364171298352E+02   -0.32274E-07   -0.69297E-06 11688   0.457E-02    0.391E-03
DAV:   8    -0.364171299340E+02   -0.98747E-07   -0.16558E-06 12524   0.165E-02    0.138E-03
DAV:   9    -0.364171299511E+02   -0.17137E-07   -0.35883E-07 11740   0.620E-03    0.838E-04
DAV:  10    -0.364171299468E+02    0.43137E-08   -0.44109E-08  9584   0.403E-03
  12 F= -.36417130E+02 E0= -.36383000E+02  d E =-.110667E-02
 curvature:  -4.16 expect dE=-0.180E-02 dE for cont linesearch -0.262E-03
 ZBRENT: increasing intervall
 opt :   6.2633  next Energy=   -36.417455 (dE=-0.143E-02)
 bond charge predicted
       N       E                     dE             d eps       ncg     rms          rms(c)
DAV:   1    -0.364182450372E+02   -0.11151E-02   -0.42840E+00 10032   0.114E+01    0.702E-01
DAV:   2    -0.364217364143E+02   -0.34914E-02   -0.12355E-01 12068   0.356E+00    0.530E-01
DAV:   3    -0.364193751647E+02    0.23612E-02   -0.26861E-02 13712   0.182E+00    0.310E-01
DAV:   4    -0.364174665184E+02    0.19086E-02   -0.51853E-03 12304   0.720E-01    0.866E-02
DAV:   5    -0.364174518623E+02    0.14656E-04   -0.13353E-03 10784   0.268E-01    0.289E-02
DAV:   6    -0.364174559314E+02   -0.40691E-05   -0.16244E-04 11820   0.156E-01    0.159E-02
DAV:   7    -0.364174556733E+02    0.25807E-06   -0.24847E-05 12384   0.908E-02    0.800E-03
DAV:   8    -0.364174560695E+02   -0.39621E-06   -0.65959E-06 12724   0.357E-02    0.266E-03
DAV:   9    -0.364174561704E+02   -0.10093E-06   -0.14002E-06 12112   0.152E-02    0.158E-03
DAV:  10    -0.364174561816E+02   -0.11182E-07   -0.23301E-07 11892   0.628E-03    0.583E-04
DAV:  11    -0.364174561789E+02    0.27317E-08   -0.47520E-08 10888   0.288E-03
  13 F= -.36417456E+02 E0= -.36383483E+02  d E =-.143290E-02
 curvature:  -5.18 expect dE=-0.100E-01 dE for cont linesearch -0.580E-04
 ZBRENT: bracketing found
 ZBRENT: interpolating
 opt :   5.1473  next Energy=   -36.417527 (dE=-0.150E-02)
 bond charge predicted
       N       E                     dE             d eps       ncg     rms          rms(c)
DAV:   1    -0.364175892646E+02   -0.13308E-03   -0.37767E-01 10044   0.339E+00    0.210E-01
DAV:   2    -0.364179147104E+02   -0.32545E-03   -0.11134E-02 12180   0.111E+00    0.159E-01
DAV:   3    -0.364177023374E+02    0.21237E-03   -0.24584E-03 13968   0.534E-01    0.930E-02
DAV:   4    -0.364175315319E+02    0.17081E-03   -0.46294E-04 12728   0.214E-01    0.268E-02
DAV:   5    -0.364175283895E+02    0.31424E-05   -0.11476E-04 10776   0.820E-02    0.868E-03
DAV:   6    -0.364175288414E+02   -0.45192E-06   -0.15536E-05 11816   0.532E-02    0.487E-03
DAV:   7    -0.364175288587E+02   -0.17271E-07   -0.27064E-06 11360   0.269E-02    0.243E-03
DAV:   8    -0.364175289156E+02   -0.56838E-07   -0.68781E-07 13976   0.971E-03    0.881E-04
DAV:   9    -0.364175289390E+02   -0.23485E-07   -0.12100E-07 11056   0.386E-03    0.525E-04
DAV:  10    -0.364175289486E+02   -0.95579E-08   -0.16519E-08  7060   0.212E-03
  14 F= -.36417529E+02 E0= -.36383507E+02  d E =-.150567E-02
 curvature:  -6.27 expect dE=-0.799E-02 dE for cont linesearch -0.490E-09
 trial: gam= 2.32375 g(F)=  0.812E-03 g(S)=  0.462E-03 ort =-0.333E-06 (trialstep = 0.243E+00)
 search vector abs. value=  0.893E-02
 bond charge predicted
       N       E                     dE             d eps       ncg     rms          rms(c)
DAV:   1    -0.364176855473E+02   -0.15661E-03   -0.12083E-01 10048   0.189E+00    0.895E-02
DAV:   2    -0.364178620940E+02   -0.17655E-03   -0.31981E-03 11236   0.470E-01    0.615E-02
DAV:   3    -0.364178337292E+02    0.28365E-04   -0.51680E-04 12572   0.223E-01    0.372E-02
DAV:   4    -0.364178152394E+02    0.18490E-04   -0.78561E-05 12172   0.124E-01    0.175E-02
DAV:   5    -0.364178112510E+02    0.39884E-05   -0.22634E-05 13836   0.481E-02    0.348E-03
DAV:   6    -0.364178114950E+02   -0.24399E-06   -0.46121E-06 10552   0.209E-02    0.214E-03
DAV:   7    -0.364178114994E+02   -0.44383E-08   -0.40302E-07 12680   0.986E-03    0.127E-03
DAV:   8    -0.364178115237E+02   -0.24346E-07   -0.11992E-07 12272   0.538E-03    0.369E-04
DAV:   9    -0.364178115317E+02   -0.79599E-08   -0.28417E-08  8404   0.206E-03
  15 F= -.36417812E+02 E0= -.36383805E+02  d E =-.282583E-03
 ZBRENT: can't locate minimum, use default step
 trial-energy change:   -0.000283  1 .order   -0.000284   -0.000309   -0.000259
 step:   0.9722(harm=  1.4819)  dis= 0.01237  next Energy=   -36.418472 (dE=-0.943E-03)
 bond charge predicted
       N       E                     dE             d eps       ncg     rms          rms(c)
DAV:   1    -0.364171954603E+02    0.61606E-03   -0.10885E+00 10044   0.569E+00    0.269E-01
DAV:   2    -0.364188095038E+02   -0.16140E-02   -0.29068E-02 11260   0.143E+00    0.185E-01
DAV:   3    -0.364185548778E+02    0.25463E-03   -0.46690E-03 12556   0.668E-01    0.112E-01
DAV:   4    -0.364183926457E+02    0.16223E-03   -0.71769E-04 12168   0.375E-01    0.527E-02
DAV:   5    -0.364183574791E+02    0.35167E-04   -0.20386E-04 13848   0.147E-01    0.103E-02
DAV:   6    -0.364183598256E+02   -0.23465E-05   -0.42044E-05 10584   0.629E-02    0.642E-03
DAV:   7    -0.364183597676E+02    0.57976E-07   -0.36246E-06 12600   0.287E-02    0.385E-03
DAV:   8    -0.364183598377E+02   -0.70091E-07   -0.10811E-06 12676   0.165E-02    0.110E-03
DAV:   9    -0.364183598790E+02   -0.41315E-07   -0.28909E-07 12356   0.643E-03    0.589E-04
DAV:  10    -0.364183598904E+02   -0.11433E-07   -0.53339E-08  9800   0.259E-03    0.383E-04
DAV:  11    -0.364183599033E+02   -0.12834E-07   -0.91570E-09  6116   0.178E-03    0.145E-04
DAV:  12    -0.364183599086E+02   -0.53747E-08   -0.41727E-09  5776   0.106E-03
  16 F= -.36418360E+02 E0= -.36384401E+02  d E =-.830960E-03
 curvature:  -4.32 expect dE=-0.976E-02 dE for cont linesearch -0.952E-04
 ZBRENT: increasing intervall
 opt :   2.4306  next Energy=   -36.418102 (dE=-0.573E-03)
 bond charge predicted
       N       E                     dE             d eps       ncg     rms          rms(c)
DAV:   1    -0.364132359771E+02    0.51239E-02   -0.43623E+00 10036   0.114E+01    0.540E-01
DAV:   2    -0.364198980102E+02   -0.66620E-02   -0.11851E-01 11276   0.291E+00    0.370E-01
DAV:   3    -0.364188768454E+02    0.10212E-02   -0.18827E-02 12528   0.134E+00    0.225E-01
DAV:   4    -0.364182390095E+02    0.63784E-03   -0.29412E-03 12140   0.764E-01    0.107E-01
DAV:   5    -0.364180941592E+02    0.14485E-03   -0.82036E-04 13912   0.304E-01    0.205E-02
DAV:   6    -0.364181040580E+02   -0.98988E-05   -0.17044E-04 10632   0.127E-01    0.129E-02
DAV:   7    -0.364181038155E+02    0.24248E-06   -0.15193E-05 12508   0.573E-02    0.795E-03
DAV:   8    -0.364181039038E+02   -0.88301E-07   -0.44080E-06 12724   0.341E-02    0.230E-03
DAV:   9    -0.364181040461E+02   -0.14227E-06   -0.12552E-06 12612   0.134E-02    0.122E-03
DAV:  10    -0.364181040793E+02   -0.33284E-07   -0.24101E-07 11296   0.522E-03    0.813E-04
DAV:  11    -0.364181041041E+02   -0.24796E-07   -0.40981E-08  9664   0.324E-03    0.309E-04
DAV:  12    -0.364181041207E+02   -0.16508E-07   -0.13245E-08  6844   0.185E-03    0.981E-05
DAV:  13    -0.364181041230E+02   -0.23583E-08   -0.48690E-09  5840   0.780E-04
  17 F= -.36418104E+02 E0= -.36384247E+02  d E =-.575174E-03
 curvature:  11.69 expect dE= 0.152E+00 dE for cont linesearch  0.853E-03
 ZBRENT: bracketing found
 ZBRENT: interpolating
 opt :   1.4896  next Energy=   -36.418475 (dE=-0.946E-03)
 bond charge predicted
       N       E                     dE             d eps       ncg     rms          rms(c)
DAV:   1    -0.364166035090E+02    0.15006E-02   -0.18076E+00 10040   0.727E+00    0.345E-01
DAV:   2    -0.364192547371E+02   -0.26512E-02   -0.47660E-02 11276   0.179E+00    0.243E-01
DAV:   3    -0.364187976353E+02    0.45710E-03   -0.81332E-03 12716   0.892E-01    0.144E-01
DAV:   4    -0.364185266288E+02    0.27101E-03   -0.11535E-03 12332   0.471E-01    0.670E-02
DAV:   5    -0.364184755990E+02    0.51030E-04   -0.35122E-04 13616   0.183E-01    0.148E-02
DAV:   6    -0.364184786777E+02   -0.30788E-05   -0.68373E-05 10612   0.886E-02    0.836E-03
DAV:   7    -0.364184784658E+02    0.21190E-06   -0.77356E-06 12536   0.442E-02    0.524E-03
DAV:   8    -0.364184783862E+02    0.79602E-07   -0.21265E-06 11944   0.208E-02    0.169E-03
DAV:   9    -0.364184784070E+02   -0.20757E-07   -0.54507E-07 11748   0.807E-03    0.851E-04
DAV:  10    -0.364184784060E+02    0.98362E-09   -0.10311E-07 11084   0.398E-03    0.446E-04
DAV:  11    -0.364184783948E+02    0.11175E-07   -0.17771E-08  7220   0.235E-03    0.215E-04
DAV:  12    -0.364184783901E+02    0.47171E-08   -0.70762E-09  5904   0.166E-03
  18 F= -.36418478E+02 E0= -.36384554E+02  d E =-.949441E-03
 curvature:  -1.57 expect dE=-0.761E-02 dE for cont linesearch -0.130E-09
 trial: gam= 3.77600 g(F)=  0.418E-02 g(S)=  0.660E-03 ort = 0.859E-06 (trialstep = 0.333E-01)
 search vector abs. value=  0.132E+00
 bond charge predicted
       N       E                     dE             d eps       ncg     rms          rms(c)
DAV:   1    -0.364185997262E+02   -0.12133E-03   -0.33354E-02  9952   0.969E-01    0.401E-02
DAV:   2    -0.364186440198E+02   -0.44294E-04   -0.64481E-04 10708   0.190E-01    0.230E-02
DAV:   3    -0.364186408763E+02    0.31434E-05   -0.47938E-05 12732   0.669E-02    0.159E-02
DAV:   4    -0.364186377274E+02    0.31490E-05   -0.21047E-05 13336   0.546E-02    0.838E-03
DAV:   5    -0.364186367565E+02    0.97087E-06   -0.65432E-06 12812   0.232E-02    0.179E-03
DAV:   6    -0.364186368079E+02   -0.51405E-07   -0.13309E-06 10916   0.138E-02    0.125E-03
DAV:   7    -0.364186368059E+02    0.20027E-08   -0.14932E-07 12232   0.389E-03    0.567E-04
DAV:   8    -0.364186368106E+02   -0.46862E-08   -0.21900E-08  7900   0.268E-03
  19 F= -.36418637E+02 E0= -.36384736E+02  d E =-.158420E-03
 ZBRENT: can't locate minimum, use default step
 trial-energy change:   -0.000158  1 .order   -0.000156   -0.000161   -0.000151
 step:   0.1331(harm=  0.5272)  dis= 0.00662  next Energy=   -36.419755 (dE=-0.128E-02)
 bond charge predicted
       N       E                     dE             d eps       ncg     rms          rms(c)
DAV:   1    -0.364187090657E+02   -0.72260E-04   -0.30029E-01  9952   0.291E+00    0.120E-01
DAV:   2    -0.364191087226E+02   -0.39966E-03   -0.58207E-03 10708   0.572E-01    0.690E-02
DAV:   3    -0.364190806891E+02    0.28033E-04   -0.42935E-04 12708   0.198E-01    0.474E-02
DAV:   4    -0.364190537761E+02    0.26913E-04   -0.18896E-04 13336   0.165E-01    0.253E-02
DAV:   5    -0.364190450266E+02    0.87495E-05   -0.59623E-05 12908   0.709E-02    0.538E-03
DAV:   6    -0.364190456787E+02   -0.65214E-06   -0.11984E-05 10908   0.412E-02    0.375E-03
DAV:   7    -0.364190456704E+02    0.83910E-08   -0.13588E-06 12324   0.117E-02    0.175E-03
DAV:   8    -0.364190456904E+02   -0.20090E-07   -0.25171E-07 14288   0.851E-03    0.682E-04
DAV:   9    -0.364190456999E+02   -0.94847E-08   -0.65659E-08 11020   0.381E-03
  20 F= -.36419046E+02 E0= -.36385215E+02  d E =-.567310E-03
 curvature:  -2.61 expect dE=-0.724E-02 dE for cont linesearch -0.258E-03
 ZBRENT: increasing intervall
 opt :   0.3326  next Energy=   -36.419581 (dE=-0.110E-02)
 bond charge predicted
       N       E                     dE             d eps       ncg     rms          rms(c)
DAV:   1    -0.364182086059E+02    0.83708E-03   -0.12020E+00  9948   0.583E+00    0.241E-01
DAV:   2    -0.364198217853E+02   -0.16132E-02   -0.23433E-02 10724   0.115E+00    0.138E-01
DAV:   3    -0.364197105178E+02    0.11127E-03   -0.17109E-03 12736   0.390E-01    0.943E-02
DAV:   4    -0.364196065140E+02    0.10400E-03   -0.75212E-04 13360   0.332E-01    0.510E-02
DAV:   5    -0.364195703387E+02    0.36175E-04   -0.24271E-04 13036   0.145E-01    0.108E-02
DAV:   6    -0.364195731266E+02   -0.27879E-05   -0.47712E-05 10844   0.821E-02    0.746E-03
DAV:   7    -0.364195731145E+02    0.12075E-07   -0.55191E-06 12236   0.233E-02    0.364E-03
DAV:   8    -0.364195731596E+02   -0.45085E-07   -0.10616E-06 14340   0.187E-02    0.137E-03
DAV:   9    -0.364195731874E+02   -0.27751E-07   -0.30674E-07 13244   0.817E-03    0.695E-04
DAV:  10    -0.364195732001E+02   -0.12716E-07   -0.50157E-08 10132   0.182E-03    0.412E-04
DAV:  11    -0.364195732103E+02   -0.10156E-07   -0.12014E-08  6532   0.123E-03    0.126E-04
DAV:  12    -0.364195732133E+02   -0.30782E-08   -0.31444E-09  5776   0.939E-04
  21 F= -.36419573E+02 E0= -.36385883E+02  d E =-.109482E-02
 curvature:  -5.43 expect dE=-0.531E-02 dE for cont linesearch -0.115E-03
 ZBRENT: increasing intervall
 opt :   0.7318  next Energy=   -36.419468 (dE=-0.990E-03)
 bond charge predicted
       N       E                     dE             d eps       ncg     rms          rms(c)
DAV:   1    -0.364137881756E+02    0.57850E-02   -0.48173E+00  9948   0.117E+01    0.482E-01
DAV:   2    -0.364204055472E+02   -0.66174E-02   -0.95407E-02 10744   0.236E+00    0.277E-01
DAV:   3    -0.364199668964E+02    0.43865E-03   -0.68403E-03 12832   0.763E-01    0.187E-01
DAV:   4    -0.364195730508E+02    0.39385E-03   -0.29878E-03 13672   0.668E-01    0.104E-01
DAV:   5    -0.364194159499E+02    0.15710E-03   -0.10016E-03 13092   0.301E-01    0.218E-02
DAV:   6    -0.364194273831E+02   -0.11433E-04   -0.18978E-04 10724   0.164E-01    0.148E-02
DAV:   7    -0.364194275953E+02   -0.21221E-06   -0.23530E-05 12292   0.487E-02    0.787E-03
DAV:   8    -0.364194276280E+02   -0.32667E-07   -0.47950E-06 14604   0.449E-02    0.291E-03
DAV:   9    -0.364194277167E+02   -0.88747E-07   -0.15211E-06 13440   0.178E-02    0.143E-03
DAV:  10    -0.364194277497E+02   -0.32964E-07   -0.20530E-07 13320   0.533E-03    0.865E-04
DAV:  11    -0.364194277753E+02   -0.25594E-07   -0.82432E-08 11076   0.278E-03    0.248E-04
DAV:  12    -0.364194277809E+02   -0.56361E-08   -0.84983E-09  6612   0.110E-03
  22 F= -.36419428E+02 E0= -.36386018E+02  d E =-.949391E-03
 curvature:   4.95 expect dE= 0.100E-01 dE for cont linesearch  0.229E-03
 ZBRENT: bracketing found
 ZBRENT: interpolating
 opt :   0.4938  next Energy=   -36.419708 (dE=-0.123E-02)
 bond charge predicted
       N       E                     dE             d eps       ncg     rms          rms(c)
DAV:   1    -0.364177856245E+02    0.16422E-02   -0.17066E+00  9952   0.692E+00    0.286E-01
DAV:   2    -0.364200772638E+02   -0.22916E-02   -0.33217E-02 10732   0.135E+00    0.165E-01
DAV:   3    -0.364199229810E+02    0.15428E-03   -0.26542E-03 12848   0.533E-01    0.117E-01
DAV:   4    -0.364197506954E+02    0.17229E-03   -0.10602E-03 13116   0.381E-01    0.589E-02
DAV:   5    -0.364197087269E+02    0.41969E-04   -0.32083E-04 12240   0.155E-01    0.128E-02
DAV:   6    -0.364197129349E+02   -0.42081E-05   -0.68695E-05 11156   0.109E-01    0.925E-03
DAV:   7    -0.364197129597E+02   -0.24716E-07   -0.81826E-06 12128   0.326E-02    0.406E-03
DAV:   8    -0.364197129839E+02   -0.24202E-07   -0.15000E-06 13360   0.185E-02    0.206E-03
DAV:   9    -0.364197130127E+02   -0.28879E-07   -0.36740E-07 12976   0.817E-03    0.907E-04
DAV:  10    -0.364197130048E+02    0.79635E-08   -0.72338E-08 10620   0.197E-03
  23 F= -.36419713E+02 E0= -.36386136E+02  d E =-.123461E-02
 curvature:  -2.91 expect dE=-0.190E-02 dE for cont linesearch -0.398E-07
 trial: gam= 0.05774 g(F)=  0.474E-03 g(S)=  0.179E-03 ort = 0.425E-04 (trialstep = 0.125E+00)
 search vector abs. value=  0.110E-02
 bond charge predicted
       N       E                     dE             d eps       ncg     rms          rms(c)
DAV:   1    -0.364197970539E+02   -0.84041E-04   -0.35601E-03 10136   0.345E-01    0.255E-02
DAV:   2    -0.364197959866E+02    0.10673E-05   -0.12536E-04 11648   0.110E-01    0.149E-02
DAV:   3    -0.364197945737E+02    0.14129E-05   -0.27598E-05 13436   0.530E-02    0.113E-02
DAV:   4    -0.364197929558E+02    0.16179E-05   -0.87081E-06 12920   0.279E-02    0.447E-03
DAV:   5    -0.364197927085E+02    0.24729E-06   -0.14595E-06 13456   0.156E-02    0.967E-04
DAV:   6    -0.364197927561E+02   -0.47607E-07   -0.46914E-07 10900   0.686E-03    0.618E-04
DAV:   7    -0.364197927491E+02    0.70568E-08   -0.34660E-08  9272   0.286E-03
  24 F= -.36419793E+02 E0= -.36386226E+02  d E =-.797443E-04
 ZBRENT: can't locate minimum, use default step
 trial-energy change:   -0.000080  1 .order   -0.000080   -0.000082   -0.000077
 step:   0.5015(harm=  2.0236)  dis= 0.00178  next Energy=   -36.420376 (dE=-0.663E-03)
 bond charge predicted
       N       E                     dE             d eps       ncg     rms          rms(c)
DAV:   1    -0.364200447847E+02   -0.25203E-03   -0.32043E-02 10136   0.103E+00    0.765E-02
DAV:   2    -0.364200343974E+02    0.10387E-04   -0.11252E-03 11648   0.328E-01    0.448E-02
DAV:   3    -0.364200212851E+02    0.13112E-04   -0.24859E-04 13476   0.159E-01    0.338E-02
DAV:   4    -0.364200056240E+02    0.15661E-04   -0.78144E-05 12940   0.834E-02    0.134E-02
DAV:   5    -0.364200030960E+02    0.25281E-05   -0.13131E-05 13408   0.466E-02    0.291E-03
DAV:   6    -0.364200034245E+02   -0.32848E-06   -0.42168E-06 10884   0.206E-02    0.186E-03
DAV:   7    -0.364200033965E+02    0.27947E-07   -0.34180E-07 13376   0.860E-03    0.104E-03
DAV:   8    -0.364200033706E+02    0.25930E-07   -0.75316E-08 11516   0.572E-03    0.291E-04
DAV:   9    -0.364200033737E+02   -0.31396E-08   -0.26107E-08  8268   0.200E-03
  25 F= -.36420003E+02 E0= -.36386468E+02  d E =-.290369E-03
 curvature:  -0.61 expect dE=-0.259E-03 dE for cont linesearch -0.139E-03
 ZBRENT: increasing intervall
 opt :   1.2537  next Energy=   -36.420295 (dE=-0.582E-03)
 bond charge predicted
       N       E                     dE             d eps       ncg     rms          rms(c)
DAV:   1    -0.364204667016E+02   -0.46333E-03   -0.12813E-01 10136   0.207E+00    0.153E-01
DAV:   2    -0.364204234150E+02    0.43287E-04   -0.44979E-03 11672   0.655E-01    0.896E-02
DAV:   3    -0.364203708511E+02    0.52564E-04   -0.99468E-04 13468   0.321E-01    0.675E-02
DAV:   4    -0.364203071642E+02    0.63687E-04   -0.31212E-04 12928   0.167E-01    0.267E-02
DAV:   5    -0.364202967683E+02    0.10396E-04   -0.52457E-05 13260   0.927E-02    0.582E-03
DAV:   6    -0.364202979800E+02   -0.12116E-05   -0.16864E-05 10892   0.413E-02    0.372E-03
DAV:   7    -0.364202979017E+02    0.78316E-07   -0.13746E-06 13428   0.172E-02    0.207E-03
DAV:   8    -0.364202978415E+02    0.60199E-07   -0.31174E-07 13856   0.115E-02    0.584E-04
DAV:   9    -0.364202978518E+02   -0.10311E-07   -0.10779E-07 11968   0.374E-03    0.319E-04
DAV:  10    -0.364202978555E+02   -0.37480E-08   -0.13961E-08  6252   0.128E-03
  26 F= -.36420298E+02 E0= -.36386824E+02  d E =-.584851E-03
 curvature:  -1.28 expect dE=-0.493E-03 dE for cont linesearch -0.854E-04
 ZBRENT: increasing intervall
 opt :   2.7581  next Energy=   -36.420359 (dE=-0.646E-03)
 bond charge predicted
       N       E                     dE             d eps       ncg     rms          rms(c)
DAV:   1    -0.364210425654E+02   -0.74471E-03   -0.51242E-01 10136   0.413E+00    0.306E-01
DAV:   2    -0.364208613007E+02    0.18126E-03   -0.17950E-02 11664   0.131E+00    0.179E-01
DAV:   3    -0.364206509327E+02    0.21037E-03   -0.39825E-03 13404   0.648E-01    0.135E-01
DAV:   4    -0.364203935378E+02    0.25739E-03   -0.12427E-03 12780   0.335E-01    0.533E-02
DAV:   5    -0.364203520310E+02    0.41507E-04   -0.21086E-04 13308   0.183E-01    0.116E-02
DAV:   6    -0.364203566233E+02   -0.45924E-05   -0.67092E-05 10896   0.830E-02    0.742E-03
DAV:   7    -0.364203563676E+02    0.25567E-06   -0.55519E-06 13484   0.348E-02    0.407E-03
DAV:   8    -0.364203562161E+02    0.15149E-06   -0.12350E-06 13884   0.230E-02    0.115E-03
DAV:   9    -0.364203562536E+02   -0.37426E-07   -0.42987E-07 12252   0.733E-03    0.649E-04
DAV:  10    -0.364203562640E+02   -0.10409E-07   -0.60231E-08 11096   0.252E-03    0.432E-04
DAV:  11    -0.364203562630E+02    0.98953E-09   -0.12815E-08  7084   0.203E-03
  27 F= -.36420356E+02 E0= -.36387007E+02  d E =-.643258E-03
 curvature:  -0.92 expect dE=-0.127E-02 dE for cont linesearch -0.324E-04
 ZBRENT: bracketing found
 ZBRENT: interpolating
 opt :   2.1255  next Energy=   -36.420418 (dE=-0.705E-03)
 bond charge predicted
       N       E                     dE             d eps       ncg     rms          rms(c)
DAV:   1    -0.364205396245E+02   -0.18336E-03   -0.90753E-02 10140   0.175E+00    0.129E-01
DAV:   2    -0.364205096483E+02    0.29976E-04   -0.32267E-03 11664   0.559E-01    0.757E-02
DAV:   3    -0.364204712188E+02    0.38429E-04   -0.70195E-04 13572   0.269E-01    0.568E-02
DAV:   4    -0.364204249090E+02    0.46310E-04   -0.22089E-04 12848   0.141E-01    0.226E-02
DAV:   5    -0.364204167630E+02    0.81460E-05   -0.37187E-05 13228   0.804E-02    0.490E-03
DAV:   6    -0.364204174884E+02   -0.72537E-06   -0.12165E-05 10852   0.351E-02    0.311E-03
DAV:   7    -0.364204174834E+02    0.49945E-08   -0.10009E-06 13124   0.151E-02    0.178E-03
DAV:   8    -0.364204175050E+02   -0.21559E-07   -0.23633E-07 13876   0.983E-03    0.517E-04
DAV:   9    -0.364204175086E+02   -0.36453E-08   -0.79163E-08 11448   0.314E-03
  28 F= -.36420418E+02 E0= -.36387016E+02  d E =-.704504E-03
 curvature:  -1.77 expect dE=-0.138E-02 dE for cont linesearch -0.210E-08
 trial: gam= 1.19506 g(F)=  0.514E-03 g(S)=  0.271E-03 ort = 0.114E-05 (trialstep = 0.245E+00)
 search vector abs. value=  0.236E-02
 bond charge predicted
       N       E                     dE             d eps       ncg     rms          rms(c)
DAV:   1    -0.364205288026E+02   -0.11130E-03   -0.28910E-02 10344   0.102E+00    0.745E-02
DAV:   2    -0.364205676770E+02   -0.38874E-04   -0.13999E-03 11804   0.405E-01    0.389E-02
DAV:   3    -0.364205594005E+02    0.82765E-05   -0.16962E-04 13148   0.104E-01    0.269E-02
DAV:   4    -0.364205503348E+02    0.90656E-05   -0.61851E-05 13724   0.920E-02    0.155E-02
DAV:   5    -0.364205463398E+02    0.39951E-05   -0.12494E-05 14128   0.472E-02    0.272E-03
DAV:   6    -0.364205466058E+02   -0.26605E-06   -0.37050E-06 10692   0.184E-02    0.170E-03
DAV:   7    -0.364205466350E+02   -0.29172E-07   -0.35990E-07 12816   0.644E-03    0.104E-03
DAV:   8    -0.364205466630E+02   -0.27994E-07   -0.67347E-08 12432   0.691E-03    0.463E-04
DAV:   9    -0.364205466818E+02   -0.18802E-07   -0.22238E-08  7320   0.232E-03    0.183E-04
DAV:  10    -0.364205466849E+02   -0.30896E-08   -0.67516E-09  5800   0.895E-04
  29 F= -.36420547E+02 E0= -.36387126E+02  d E =-.129176E-03
 trial-energy change:   -0.000129  1 .order   -0.000129   -0.000192   -0.000066
 step:   0.3714(harm=  0.3714)  dis= 0.00175  next Energy=   -36.420563 (dE=-0.146E-03)
 bond charge predicted
       N       E                     dE             d eps       ncg     rms          rms(c)
DAV:   1    -0.364205592185E+02   -0.12537E-04   -0.77068E-03 10352   0.528E-01    0.384E-02
DAV:   2    -0.364205696561E+02   -0.10438E-04   -0.37216E-04 11808   0.209E-01    0.201E-02
DAV:   3    -0.364205673849E+02    0.22711E-05   -0.45316E-05 13156   0.536E-02    0.139E-02
DAV:   4    -0.364205648801E+02    0.25048E-05   -0.16486E-05 13732   0.477E-02    0.799E-03
DAV:   5    -0.364205637933E+02    0.10868E-05   -0.33246E-06 14140   0.244E-02    0.140E-03
DAV:   6    -0.364205638698E+02   -0.76453E-07   -0.98557E-07 10684   0.956E-03    0.878E-04
DAV:   7    -0.364205638851E+02   -0.15332E-07   -0.95450E-08 12016   0.338E-03    0.539E-04
DAV:   8    -0.364205639006E+02   -0.15512E-07   -0.14484E-08  6072   0.364E-03    0.251E-04
DAV:   9    -0.364205639112E+02   -0.10560E-07   -0.98967E-09  5764   0.125E-03    0.101E-04
DAV:  10    -0.364205639122E+02   -0.98044E-09   -0.32490E-09  5572   0.518E-04
  30 F= -.36420564E+02 E0= -.36387134E+02  d E =-.146404E-03
 curvature:  -0.56 expect dE=-0.289E-03 dE for cont linesearch -0.101E-08
 trial: gam= 0.65578 g(F)=  0.432E-03 g(S)=  0.871E-04 ort = 0.207E-05 (trialstep = 0.270E+00)
 search vector abs. value=  0.153E-02
 bond charge predicted
       N       E                     dE             d eps       ncg     rms          rms(c)
DAV:   1    -0.364207453875E+02   -0.18148E-03   -0.22823E-02 10232   0.972E-01    0.848E-02
DAV:   2    -0.364207172415E+02    0.28146E-04   -0.12904E-03 11720   0.467E-01    0.406E-02
DAV:   3    -0.364207078952E+02    0.93463E-05   -0.19126E-04 14408   0.156E-01    0.257E-02
DAV:   4    -0.364206985533E+02    0.93419E-05   -0.77471E-05 12896   0.868E-02    0.154E-02
DAV:   5    -0.364206940873E+02    0.44660E-05   -0.15419E-05 12636   0.406E-02    0.365E-03
DAV:   6    -0.364206940488E+02    0.38523E-07   -0.34283E-06 11248   0.171E-02    0.188E-03
DAV:   7    -0.364206940347E+02    0.14075E-07   -0.39501E-07 12200   0.851E-03    0.113E-03
DAV:   8    -0.364206940388E+02   -0.41127E-08   -0.12354E-07 11728   0.421E-03    0.539E-04
DAV:   9    -0.364206940463E+02   -0.74924E-08   -0.20565E-08  6936   0.274E-03
  31 F= -.36420694E+02 E0= -.36387260E+02  d E =-.130134E-03
 ZBRENT: can't locate minimum, use default step
 trial-energy change:   -0.000130  1 .order   -0.000130   -0.000141   -0.000119
 step:   1.0809(harm=  1.7325)  dis= 0.00382  next Energy=   -36.420920 (dE=-0.356E-03)
 bond charge predicted
       N       E                     dE             d eps       ncg     rms          rms(c)
DAV:   1    -0.364214137394E+02   -0.71970E-03   -0.20561E-01 10264   0.292E+00    0.254E-01
DAV:   2    -0.364211571272E+02    0.25661E-03   -0.11626E-02 11728   0.140E+00    0.122E-01
DAV:   3    -0.364210781503E+02    0.78977E-04   -0.17320E-03 14548   0.467E-01    0.772E-02
DAV:   4    -0.364209939221E+02    0.84228E-04   -0.69500E-04 12940   0.259E-01    0.463E-02
DAV:   5    -0.364209561498E+02    0.37772E-04   -0.13775E-04 12544   0.122E-01    0.110E-02
DAV:   6    -0.364209563561E+02   -0.20637E-06   -0.30830E-05 11284   0.514E-02    0.564E-03
DAV:   7    -0.364209562859E+02    0.70261E-07   -0.35788E-06 12124   0.256E-02    0.342E-03
DAV:   8    -0.364209562899E+02   -0.40459E-08   -0.11195E-06 12316   0.126E-02    0.163E-03
DAV:   9    -0.364209563192E+02   -0.29242E-07   -0.21282E-07 11928   0.820E-03    0.524E-04
DAV:  10    -0.364209563368E+02   -0.17694E-07   -0.67441E-08 10860   0.233E-03    0.334E-04
DAV:  11    -0.364209563479E+02   -0.11009E-07   -0.12813E-08  6332   0.135E-03    0.183E-04
DAV:  12    -0.364209563555E+02   -0.76666E-08   -0.40956E-09  5724   0.750E-04
  32 F= -.36420956E+02 E0= -.36387508E+02  d E =-.392443E-03
 curvature:  -2.05 expect dE=-0.464E-03 dE for cont linesearch -0.543E-04
 ZBRENT: increasing intervall
 opt :   2.7022  next Energy=   -36.420898 (dE=-0.335E-03)
 bond charge predicted
       N       E                     dE             d eps       ncg     rms          rms(c)
DAV:   1    -0.364227091797E+02   -0.17528E-02   -0.82358E-01 10312   0.587E+00    0.509E-01
DAV:   2    -0.364216975070E+02    0.10117E-02   -0.46518E-02 11720   0.280E+00    0.244E-01
DAV:   3    -0.364213901000E+02    0.30741E-03   -0.69905E-03 14652   0.930E-01    0.155E-01
DAV:   4    -0.364210488543E+02    0.34125E-03   -0.27718E-03 13012   0.517E-01    0.924E-02
DAV:   5    -0.364209001760E+02    0.14868E-03   -0.54316E-04 12324   0.242E-01    0.219E-02
DAV:   6    -0.364209015676E+02   -0.13917E-05   -0.12379E-04 11340   0.104E-01    0.113E-02
DAV:   7    -0.364209013531E+02    0.21453E-06   -0.14508E-05 12068   0.516E-02    0.684E-03
DAV:   8    -0.364209013348E+02    0.18288E-07   -0.45246E-06 12408   0.250E-02    0.330E-03
DAV:   9    -0.364209014087E+02   -0.73852E-07   -0.85539E-07 11912   0.164E-02    0.105E-03
DAV:  10    -0.364209014540E+02   -0.45280E-07   -0.27190E-07 13116   0.458E-03    0.662E-04
DAV:  11    -0.364209014758E+02   -0.21796E-07   -0.50792E-08 10732   0.248E-03    0.382E-04
DAV:  12    -0.364209014920E+02   -0.16203E-07   -0.11453E-08  6756   0.129E-03    0.839E-05
DAV:  13    -0.364209014910E+02    0.96634E-09   -0.32900E-09  5676   0.549E-04
  33 F= -.36420901E+02 E0= -.36387426E+02  d E =-.337579E-03
 curvature:   2.18 expect dE= 0.232E-02 dE for cont linesearch  0.106E-03
 ZBRENT: bracketing found
 ZBRENT: interpolating
 opt :   1.7705  next Energy=   -36.421026 (dE=-0.462E-03)
 bond charge predicted
       N       E                     dE             d eps       ncg     rms          rms(c)
DAV:   1    -0.364216399296E+02   -0.73844E-03   -0.27082E-01 10304   0.333E+00    0.291E-01
DAV:   2    -0.364212802851E+02    0.35964E-03   -0.15167E-02 11812   0.159E+00    0.139E-01
DAV:   3    -0.364211788476E+02    0.10144E-03   -0.22443E-03 14200   0.539E-01    0.885E-02
DAV:   4    -0.364210709081E+02    0.10794E-03   -0.92799E-04 13008   0.299E-01    0.529E-02
DAV:   5    -0.364210246746E+02    0.46233E-04   -0.18299E-04 12708   0.139E-01    0.126E-02
DAV:   6    -0.364210256726E+02   -0.99798E-06   -0.40442E-05 11264   0.588E-02    0.643E-03
DAV:   7    -0.364210256416E+02    0.31017E-07   -0.46510E-06 12228   0.296E-02    0.383E-03
DAV:   8    -0.364210256105E+02    0.31084E-07   -0.14522E-06 12316   0.144E-02    0.182E-03
DAV:   9    -0.364210256001E+02    0.10369E-07   -0.28365E-07 12156   0.912E-03    0.599E-04
DAV:  10    -0.364210255901E+02    0.99690E-08   -0.87225E-08 11548   0.262E-03
  34 F= -.36421026E+02 E0= -.36387565E+02  d E =-.461678E-03
 curvature:  -1.44 expect dE=-0.580E-03 dE for cont linesearch -0.682E-08
 trial: gam= 0.78428 g(F)=  0.248E-03 g(S)=  0.155E-03 ort =-0.270E-05 (trialstep = 0.570E+00)
 search vector abs. value=  0.134E-02
 bond charge predicted
       N       E                     dE             d eps       ncg     rms          rms(c)
DAV:   1    -0.364210981824E+02   -0.72582E-04   -0.92439E-02  9968   0.166E+00    0.740E-02
DAV:   2    -0.364212603749E+02   -0.16219E-03   -0.24183E-03 12072   0.361E-01    0.488E-02
DAV:   3    -0.364212410782E+02    0.19297E-04   -0.13569E-04 12652   0.118E-01    0.305E-02
DAV:   4    -0.364212367265E+02    0.43517E-05   -0.75996E-05 15036   0.903E-02    0.211E-02
DAV:   5    -0.364212310855E+02    0.56410E-05   -0.33025E-05 13568   0.559E-02    0.676E-03
DAV:   6    -0.364212310686E+02    0.16920E-07   -0.62130E-06 11464   0.187E-02    0.236E-03
DAV:   7    -0.364212310610E+02    0.75738E-08   -0.82195E-07 11052   0.107E-02    0.151E-03
DAV:   8    -0.364212310439E+02    0.17097E-07   -0.14832E-07 13844   0.864E-03    0.719E-04
DAV:   9    -0.364212310393E+02    0.46130E-08   -0.46209E-08 10888   0.300E-03
  35 F= -.36421231E+02 E0= -.36387742E+02  d E =-.205449E-03
 ZBRENT: can't locate minimum, use default step
 trial-energy change:   -0.000205  1 .order   -0.000207   -0.000229   -0.000186
 step:   2.2811(harm=  3.0268)  dis= 0.00863  next Energy=   -36.421633 (dE=-0.607E-03)
 bond charge predicted
       N       E                     dE             d eps       ncg     rms          rms(c)
DAV:   1    -0.364204110682E+02    0.81998E-03   -0.83184E-01  9968   0.496E+00    0.222E-01
DAV:   2    -0.364218638268E+02   -0.14528E-02   -0.21667E-02 12040   0.107E+00    0.146E-01
DAV:   3    -0.364216911477E+02    0.17268E-03   -0.12382E-03 12712   0.355E-01    0.920E-02
DAV:   4    -0.364216491946E+02    0.41953E-04   -0.68674E-04 15132   0.271E-01    0.638E-02
DAV:   5    -0.364215982723E+02    0.50922E-04   -0.29106E-04 13724   0.166E-01    0.200E-02
DAV:   6    -0.364215978963E+02    0.37597E-06   -0.55538E-05 11352   0.561E-02    0.707E-03
DAV:   7    -0.364215979233E+02   -0.27007E-07   -0.70909E-06 11088   0.304E-02    0.453E-03
DAV:   8    -0.364215978347E+02    0.88650E-07   -0.13271E-06 13820   0.256E-02    0.207E-03
DAV:   9    -0.364215978255E+02    0.92318E-08   -0.42932E-07 13568   0.960E-03    0.637E-04
DAV:  10    -0.364215978229E+02    0.26012E-08   -0.99759E-08 11632   0.305E-03
  36 F= -.36421598E+02 E0= -.36388023E+02  d E =-.572233E-03
 curvature:  -4.60 expect dE=-0.203E-02 dE for cont linesearch -0.334E-04
 ZBRENT: extrapolating
 opt :   3.0263  next Energy=   -36.421635 (dE=-0.609E-03)
 bond charge predicted
       N       E                     dE             d eps       ncg     rms          rms(c)
DAV:   1    -0.364214102540E+02    0.18757E-03   -0.15788E-01  9968   0.216E+00    0.967E-02
DAV:   2    -0.364216864183E+02   -0.27616E-03   -0.41192E-03 12024   0.470E-01    0.637E-02
DAV:   3    -0.364216540179E+02    0.32400E-04   -0.23417E-04 12620   0.154E-01    0.399E-02
DAV:   4    -0.364216465144E+02    0.75035E-05   -0.13081E-04 15140   0.119E-01    0.277E-02
DAV:   5    -0.364216367931E+02    0.97214E-05   -0.55999E-05 13700   0.729E-02    0.878E-03
DAV:   6    -0.364216367525E+02    0.40609E-07   -0.10505E-05 11400   0.245E-02    0.308E-03
DAV:   7    -0.364216367468E+02    0.56789E-08   -0.13895E-06 11088   0.138E-02    0.198E-03
DAV:   8    -0.364216367230E+02    0.23801E-07   -0.25265E-07 13784   0.114E-02    0.926E-04
DAV:   9    -0.364216367176E+02    0.53878E-08   -0.80950E-08 12316   0.402E-03
  37 F= -.36421637E+02 E0= -.36388024E+02  d E =-.611127E-03
 curvature:  -5.07 expect dE=-0.367E-02 dE for cont linesearch -0.344E-08
 trial: gam= 1.76514 g(F)=  0.502E-03 g(S)=  0.221E-03 ort = 0.955E-06 (trialstep = 0.290E+00)
 search vector abs. value=  0.491E-02
 bond charge predicted
       N       E                     dE             d eps       ncg     rms          rms(c)
DAV:   1    -0.364216682565E+02   -0.31533E-04   -0.82785E-02 10040   0.164E+00    0.904E-02
DAV:   2    -0.364218394330E+02   -0.17118E-03   -0.30469E-03 12516   0.448E-01    0.596E-02
DAV:   3    -0.364218065039E+02    0.32929E-04   -0.39115E-04 13352   0.173E-01    0.409E-02
DAV:   4    -0.364217919097E+02    0.14594E-04   -0.10719E-04 12896   0.118E-01    0.238E-02
DAV:   5    -0.364217852062E+02    0.67035E-05   -0.21460E-05 12652   0.474E-02    0.667E-03
DAV:   6    -0.364217850860E+02    0.12018E-06   -0.55658E-06 12136   0.218E-02    0.237E-03
DAV:   7    -0.364217851282E+02   -0.42253E-07   -0.91171E-07 11404   0.121E-02    0.157E-03
DAV:   8    -0.364217851604E+02   -0.32218E-07   -0.17652E-07 12600   0.651E-03    0.697E-04
DAV:   9    -0.364217851805E+02   -0.20020E-07   -0.37988E-08  9572   0.313E-03    0.230E-04
DAV:  10    -0.364217851885E+02   -0.80408E-08   -0.15120E-08  6156   0.119E-03
  38 F= -.36421785E+02 E0= -.36388123E+02  d E =-.148471E-03
 trial-energy change:   -0.000148  1 .order   -0.000149   -0.000211   -0.000088
 step:   0.5124(harm=  0.4983)  dis= 0.00401  next Energy=   -36.421818 (dE=-0.182E-03)
 bond charge predicted
       N       E                     dE             d eps       ncg     rms          rms(c)
DAV:   1    -0.364217482538E+02    0.36927E-04   -0.48501E-02 10036   0.126E+00    0.692E-02
DAV:   2    -0.364218483806E+02   -0.10013E-03   -0.17823E-03 12536   0.343E-01    0.456E-02
DAV:   3    -0.364218290931E+02    0.19287E-04   -0.22999E-04 13376   0.133E-01    0.313E-02
DAV:   4    -0.364218204454E+02    0.86477E-05   -0.62900E-05 12876   0.904E-02    0.182E-02
DAV:   5    -0.364218164891E+02    0.39563E-05   -0.12588E-05 12660   0.363E-02    0.510E-03
DAV:   6    -0.364218164174E+02    0.71653E-07   -0.32611E-06 12128   0.167E-02    0.181E-03
DAV:   7    -0.364218164458E+02   -0.28354E-07   -0.53314E-07 11400   0.926E-03    0.120E-03
DAV:   8    -0.364218164707E+02   -0.24968E-07   -0.10261E-07 12300   0.500E-03    0.535E-04
DAV:   9    -0.364218164857E+02   -0.15003E-07   -0.20215E-08  7168   0.241E-03    0.176E-04
DAV:  10    -0.364218164919E+02   -0.61286E-08   -0.10820E-08  5824   0.967E-04
  39 F= -.36421816E+02 E0= -.36388117E+02  d E =-.179774E-03
 curvature:  -1.68 expect dE=-0.140E-02 dE for cont linesearch -0.124E-06
 trial: gam= 1.17719 g(F)=  0.773E-03 g(S)=  0.598E-04 ort =-0.190E-04 (trialstep = 0.216E+00)
 search vector abs. value=  0.759E-02
 bond charge predicted
       N       E                     dE             d eps       ncg     rms          rms(c)
DAV:   1    -0.364218454089E+02   -0.28923E-04   -0.73808E-02 10020   0.155E+00    0.782E-02
DAV:   2    -0.364220032868E+02   -0.15788E-03   -0.24543E-03 11912   0.389E-01    0.451E-02
DAV:   3    -0.364219852772E+02    0.18010E-04   -0.15003E-04 12328   0.106E-01    0.281E-02
DAV:   4    -0.364219813729E+02    0.39042E-05   -0.64334E-05 13588   0.747E-02    0.168E-02
DAV:   5    -0.364219777515E+02    0.36215E-05   -0.29953E-05 13408   0.514E-02    0.748E-03
DAV:   6    -0.364219771736E+02    0.57784E-06   -0.61069E-06 12872   0.212E-02    0.229E-03
DAV:   7    -0.364219772149E+02   -0.41291E-07   -0.86657E-07 10652   0.105E-02    0.131E-03
DAV:   8    -0.364219772109E+02    0.40636E-08   -0.13214E-07 12804   0.471E-03    0.772E-04
DAV:   9    -0.364219772152E+02   -0.43569E-08   -0.35949E-08 10492   0.281E-03
  40 F= -.36421977E+02 E0= -.36388266E+02  d E =-.160723E-03
 trial-energy change:   -0.000161  1 .order   -0.000159   -0.000175   -0.000142
 step:   0.6474(harm=  1.1271)  dis= 0.00667  next Energy=   -36.422135 (dE=-0.318E-03)
 bond charge predicted
       N       E                     dE             d eps       ncg     rms          rms(c)
DAV:   1    -0.364216703203E+02    0.30689E-03   -0.29276E-01 10020   0.309E+00    0.156E-01
DAV:   2    -0.364222947149E+02   -0.62439E-03   -0.97272E-03 11888   0.778E-01    0.896E-02
DAV:   3    -0.364222245194E+02    0.70195E-04   -0.59562E-04 12328   0.211E-01    0.559E-02
DAV:   4    -0.364222093309E+02    0.15189E-04   -0.25236E-04 13584   0.147E-01    0.333E-02
DAV:   5    -0.364221951226E+02    0.14208E-04   -0.11803E-04 13420   0.102E-01    0.149E-02
DAV:   6    -0.364221930258E+02    0.20968E-05   -0.24153E-05 12932   0.424E-02    0.455E-03
DAV:   7    -0.364221931781E+02   -0.15234E-06   -0.34560E-06 10652   0.212E-02    0.261E-03
DAV:   8    -0.364221931647E+02    0.13419E-07   -0.53325E-07 12932   0.957E-03    0.155E-03
DAV:   9    -0.364221931717E+02   -0.70572E-08   -0.15419E-07 13412   0.571E-03    0.450E-04
DAV:  10    -0.364221931817E+02   -0.99631E-08   -0.41215E-08  9604   0.259E-03
  41 F= -.36422193E+02 E0= -.36388460E+02  d E =-.376690E-03
 curvature:  -3.81 expect dE=-0.121E-02 dE for cont linesearch -0.566E-04
 ZBRENT: increasing intervall
 opt :   1.5094  next Energy=   -36.422207 (dE=-0.391E-03)
 bond charge predicted
       N       E                     dE             d eps       ncg     rms          rms(c)
DAV:   1    -0.364201071422E+02    0.20860E-02   -0.11722E+00 10036   0.619E+00    0.311E-01
DAV:   2    -0.364226084811E+02   -0.25013E-02   -0.38944E-02 11916   0.157E+00    0.179E-01
DAV:   3    -0.364223342924E+02    0.27419E-03   -0.23719E-03 12352   0.422E-01    0.111E-01
DAV:   4    -0.364222721955E+02    0.62097E-04   -0.98334E-04 13568   0.290E-01    0.657E-02
DAV:   5    -0.364222172037E+02    0.54992E-04   -0.46569E-04 13428   0.202E-01    0.296E-02
DAV:   6    -0.364222092620E+02    0.79417E-05   -0.96336E-05 13028   0.844E-02    0.909E-03
DAV:   7    -0.364222098132E+02   -0.55120E-06   -0.13776E-05 10656   0.426E-02    0.521E-03
DAV:   8    -0.364222097695E+02    0.43735E-07   -0.21945E-06 12992   0.192E-02    0.310E-03
DAV:   9    -0.364222097733E+02   -0.38353E-08   -0.62558E-07 13132   0.115E-02    0.915E-04
DAV:  10    -0.364222098011E+02   -0.27806E-07   -0.18424E-07 12780   0.533E-03    0.521E-04
DAV:  11    -0.364222098138E+02   -0.12686E-07   -0.25255E-08  7600   0.160E-03    0.274E-04
DAV:  12    -0.364222098198E+02   -0.60268E-08   -0.60148E-09  5868   0.909E-04
  42 F= -.36422210E+02 E0= -.36388437E+02  d E =-.393328E-03
 curvature:  -0.96 expect dE=-0.712E-03 dE for cont linesearch -0.114E-04
 ZBRENT: bracketing found
 ZBRENT: interpolating
 opt :   1.1017  next Energy=   -36.422271 (dE=-0.455E-03)
 bond charge predicted
       N       E                     dE             d eps       ncg     rms          rms(c)
DAV:   1    -0.364218042999E+02    0.40551E-03   -0.26171E-01 10036   0.291E+00    0.147E-01
DAV:   2    -0.364223610991E+02   -0.55680E-03   -0.87169E-03 11832   0.724E-01    0.847E-02
DAV:   3    -0.364222981748E+02    0.62924E-04   -0.54547E-04 12316   0.200E-01    0.531E-02
DAV:   4    -0.364222867618E+02    0.11413E-04   -0.23864E-04 13528   0.147E-01    0.329E-02
DAV:   5    -0.364222726640E+02    0.14098E-04   -0.10873E-04 13464   0.983E-02    0.139E-02
DAV:   6    -0.364222712076E+02    0.14564E-05   -0.21328E-05 12736   0.390E-02    0.428E-03
DAV:   7    -0.364222713458E+02   -0.13822E-06   -0.29997E-06 10656   0.185E-02    0.244E-03
DAV:   8    -0.364222713339E+02    0.11960E-07   -0.45346E-07 12604   0.803E-03    0.141E-03
DAV:   9    -0.364222713172E+02    0.16662E-07   -0.11212E-07 12908   0.442E-03    0.334E-04
DAV:  10    -0.364222713150E+02    0.22355E-08   -0.27645E-08  7812   0.174E-03
  43 F= -.36422271E+02 E0= -.36388517E+02  d E =-.454823E-03
 curvature:  -5.14 expect dE=-0.197E-02 dE for cont linesearch -0.275E-10
 trial: gam= 0.35348 g(F)=  0.346E-03 g(S)=  0.370E-04 ort = 0.202E-06 (trialstep = 0.393E+00)
 search vector abs. value=  0.133E-02
 bond charge predicted
       N       E                     dE             d eps       ncg     rms          rms(c)
DAV:   1    -0.364223109995E+02   -0.39682E-04   -0.45473E-02 10036   0.121E+00    0.523E-02
DAV:   2    -0.364224179402E+02   -0.10694E-03   -0.14597E-03 12296   0.274E-01    0.301E-02
DAV:   3    -0.364224118034E+02    0.61368E-05   -0.10140E-04 12260   0.108E-01    0.189E-02
DAV:   4    -0.364224098023E+02    0.20012E-05   -0.30621E-05 14516   0.585E-02    0.130E-02
DAV:   5    -0.364224080432E+02    0.17590E-05   -0.95491E-06 12152   0.335E-02    0.410E-03
DAV:   6    -0.364224080398E+02    0.34897E-08   -0.27560E-06 11160   0.113E-02    0.156E-03
DAV:   7    -0.364224080251E+02    0.14671E-07   -0.20752E-07 11472   0.526E-03    0.876E-04
DAV:   8    -0.364224080183E+02    0.67453E-08   -0.62528E-08 11220   0.374E-03
  44 F= -.36422408E+02 E0= -.36388640E+02  d E =-.136703E-03
 trial-energy change:   -0.000137  1 .order   -0.000136   -0.000151   -0.000121
 step:   1.3908(harm=  1.9954)  dis= 0.00613  next Energy=   -36.422575 (dE=-0.304E-03)
 bond charge predicted
       N       E                     dE             d eps       ncg     rms          rms(c)
DAV:   1    -0.364219985700E+02    0.40946E-03   -0.29222E-01 10036   0.306E+00    0.132E-01
DAV:   2    -0.364226835070E+02   -0.68494E-03   -0.93755E-03 12288   0.698E-01    0.762E-02
DAV:   3    -0.364226458293E+02    0.37678E-04   -0.65813E-04 12284   0.273E-01    0.480E-02
DAV:   4    -0.364226324124E+02    0.13417E-04   -0.19537E-04 14508   0.147E-01    0.328E-02
DAV:   5    -0.364226215959E+02    0.10817E-04   -0.60471E-05 12152   0.849E-02    0.103E-02
DAV:   6    -0.364226218869E+02   -0.29101E-06   -0.17583E-05 11152   0.288E-02    0.398E-03
DAV:   7    -0.364226218117E+02    0.75205E-07   -0.13451E-06 11648   0.144E-02    0.222E-03
DAV:   8    -0.364226217807E+02    0.31000E-07   -0.40396E-07 11840   0.997E-03    0.111E-03
DAV:   9    -0.364226217868E+02   -0.61023E-08   -0.13094E-07 13744   0.524E-03    0.320E-04
DAV:  10    -0.364226217924E+02   -0.55834E-08   -0.25051E-08  7732   0.160E-03
  45 F= -.36422622E+02 E0= -.36388818E+02  d E =-.350477E-03
 curvature:  -2.98 expect dE=-0.195E-02 dE for cont linesearch -0.308E-04
 ZBRENT: increasing intervall
 opt :   3.3854  next Energy=   -36.422477 (dE=-0.206E-03)
 bond charge predicted
       N       E                     dE             d eps       ncg     rms          rms(c)
DAV:   1    -0.364199802694E+02    0.26415E-02   -0.11696E+00 10040   0.613E+00    0.265E-01
DAV:   2    -0.364227233735E+02   -0.27431E-02   -0.37508E-02 12304   0.141E+00    0.152E-01
DAV:   3    -0.364225789714E+02    0.14440E-03   -0.26730E-03 12324   0.546E-01    0.962E-02
DAV:   4    -0.364225223518E+02    0.56620E-04   -0.77265E-04 14476   0.292E-01    0.655E-02
DAV:   5    -0.364224798030E+02    0.42549E-04   -0.23548E-04 12108   0.170E-01    0.201E-02
DAV:   6    -0.364224814816E+02   -0.16786E-05   -0.69120E-05 11212   0.584E-02    0.803E-03
DAV:   7    -0.364224812073E+02    0.27435E-06   -0.55152E-06 11700   0.317E-02    0.447E-03
DAV:   8    -0.364224810994E+02    0.10784E-06   -0.16467E-06 11940   0.212E-02    0.236E-03
DAV:   9    -0.364224811132E+02   -0.13773E-07   -0.56577E-07 13848   0.996E-03    0.623E-04
DAV:  10    -0.364224811333E+02   -0.20089E-07   -0.12932E-07 11752   0.300E-03    0.447E-04
DAV:  11    -0.364224811436E+02   -0.10260E-07   -0.13507E-08  6408   0.135E-03    0.175E-04
DAV:  12    -0.364224811467E+02   -0.31805E-08   -0.34176E-09  5864   0.102E-03
  46 F= -.36422481E+02 E0= -.36388616E+02  d E =-.209832E-03
 curvature:  14.01 expect dE= 0.546E-01 dE for cont linesearch  0.738E-03
 ZBRENT: bracketing found
 ZBRENT: interpolating
 opt :   2.0032  next Energy=   -36.422658 (dE=-0.386E-03)
 bond charge predicted
       N       E                     dE             d eps       ncg     rms          rms(c)
DAV:   1    -0.364214691313E+02    0.10120E-02   -0.56071E-01 10036   0.422E+00    0.183E-01
DAV:   2    -0.364227748919E+02   -0.13058E-02   -0.17991E-02 12216   0.941E-01    0.105E-01
DAV:   3    -0.364227018795E+02    0.73012E-04   -0.12340E-03 12220   0.377E-01    0.664E-02
DAV:   4    -0.364226773976E+02    0.24482E-04   -0.37876E-04 14488   0.209E-01    0.454E-02
DAV:   5    -0.364226579342E+02    0.19463E-04   -0.12051E-04 12272   0.117E-01    0.146E-02
DAV:   6    -0.364226589370E+02   -0.10029E-05   -0.34162E-05 11104   0.401E-02    0.546E-03
DAV:   7    -0.364226588628E+02    0.74258E-07   -0.25478E-06 11672   0.177E-02    0.314E-03
DAV:   8    -0.364226588277E+02    0.35127E-07   -0.78601E-07 11728   0.114E-02    0.148E-03
DAV:   9    -0.364226588222E+02    0.54974E-08   -0.21142E-07 14268   0.624E-03    0.425E-04
DAV:  10    -0.364226588213E+02    0.87766E-09   -0.38754E-08  9864   0.233E-03
  47 F= -.36422659E+02 E0= -.36388835E+02  d E =-.387506E-03
 curvature:  -0.68 expect dE=-0.877E-03 dE for cont linesearch -0.684E-12
 trial: gam= 3.36887 g(F)=  0.109E-02 g(S)=  0.200E-03 ort =-0.366E-07 (trialstep = 0.581E-01)
 search vector abs. value=  0.164E-01
 bond charge predicted
       N       E                     dE             d eps       ncg     rms          rms(c)
DAV:   1    -0.364227103655E+02   -0.51543E-04   -0.11866E-02 10056   0.655E-01    0.395E-02
DAV:   2    -0.364227330079E+02   -0.22642E-04   -0.53312E-04 13048   0.217E-01    0.191E-02
DAV:   3    -0.364227307102E+02    0.22977E-05   -0.48715E-05 12296   0.591E-02    0.128E-02
DAV:   4    -0.364227293010E+02    0.14092E-05   -0.15882E-05 12980   0.449E-02    0.817E-03
DAV:   5    -0.364227283203E+02    0.98076E-06   -0.30147E-06 14972   0.196E-02    0.238E-03
DAV:   6    -0.364227282480E+02    0.72297E-07   -0.75871E-07 12240   0.750E-03    0.783E-04
DAV:   7    -0.364227282520E+02   -0.40895E-08   -0.11378E-07 10704   0.359E-03    0.531E-04
DAV:   8    -0.364227282609E+02   -0.88676E-08   -0.15769E-08  6496   0.224E-03
  48 F= -.36422728E+02 E0= -.36388887E+02  d E =-.694396E-04
 trial-energy change:   -0.000069  1 .order   -0.000069   -0.000075   -0.000063
 step:   0.2129(harm=  0.3717)  dis= 0.00259  next Energy=   -36.422823 (dE=-0.164E-03)
 bond charge predicted
       N       E                     dE             d eps       ncg     rms          rms(c)
DAV:   1    -0.364227310507E+02   -0.27986E-05   -0.84292E-02 10056   0.175E+00    0.105E-01
DAV:   2    -0.364228907550E+02   -0.15970E-03   -0.37786E-03 13020   0.579E-01    0.508E-02
DAV:   3    -0.364228752373E+02    0.15518E-04   -0.34556E-04 12272   0.157E-01    0.342E-02
DAV:   4    -0.364228659585E+02    0.92788E-05   -0.11264E-04 12992   0.120E-01    0.218E-02
DAV:   5    -0.364228593976E+02    0.65609E-05   -0.21385E-05 14996   0.522E-02    0.635E-03
DAV:   6    -0.364228591114E+02    0.28619E-06   -0.53796E-06 12252   0.199E-02    0.209E-03
DAV:   7    -0.364228591321E+02   -0.20729E-07   -0.81941E-07 11016   0.957E-03    0.142E-03
DAV:   8    -0.364228591502E+02   -0.18104E-07   -0.12633E-07 12392   0.598E-03    0.685E-04
DAV:   9    -0.364228591702E+02   -0.19961E-07   -0.39323E-08  9992   0.286E-03    0.198E-04
DAV:  10    -0.364228591781E+02   -0.79017E-08   -0.17036E-08  6200   0.114E-03
  49 F= -.36422859E+02 E0= -.36388971E+02  d E =-.200357E-03
 curvature:  -1.76 expect dE=-0.705E-03 dE for cont linesearch -0.351E-04
 ZBRENT: increasing intervall
 opt :   0.5225  next Energy=   -36.422877 (dE=-0.219E-03)
 bond charge predicted
       N       E                     dE             d eps       ncg     rms          rms(c)
DAV:   1    -0.364223633934E+02    0.49578E-03   -0.33726E-01 10052   0.350E+00    0.210E-01
DAV:   2    -0.364230028732E+02   -0.63948E-03   -0.15121E-02 13020   0.116E+00    0.101E-01
DAV:   3    -0.364229423112E+02    0.60562E-04   -0.13792E-03 12240   0.315E-01    0.683E-02
DAV:   4    -0.364229064626E+02    0.35849E-04   -0.45020E-04 13056   0.239E-01    0.436E-02
DAV:   5    -0.364228805452E+02    0.25917E-04   -0.85344E-05 15000   0.104E-01    0.127E-02
DAV:   6    -0.364228796385E+02    0.90665E-06   -0.21390E-05 12336   0.395E-02    0.418E-03
DAV:   7    -0.364228797124E+02   -0.73818E-07   -0.33447E-06 10988   0.189E-02    0.283E-03
DAV:   8    -0.364228797279E+02   -0.15575E-07   -0.49503E-07 12852   0.117E-02    0.135E-03
DAV:   9    -0.364228797642E+02   -0.36247E-07   -0.16657E-07 14648   0.555E-03    0.400E-04
DAV:  10    -0.364228797814E+02   -0.17236E-07   -0.62841E-08 10964   0.209E-03    0.268E-04
DAV:  11    -0.364228797892E+02   -0.78012E-08   -0.46596E-09  5920   0.611E-04
  50 F= -.36422880E+02 E0= -.36388899E+02  d E =-.220968E-03
 curvature:  -0.91 expect dE=-0.936E-03 dE for cont linesearch -0.119E-04
 ZBRENT: bracketing found
 ZBRENT: interpolating
 opt :   0.3839  next Energy=   -36.422912 (dE=-0.253E-03)
 bond charge predicted
       N       E                     dE             d eps       ncg     rms          rms(c)
DAV:   1    -0.364228091546E+02    0.70627E-04   -0.67522E-02 10048   0.156E+00    0.941E-02
DAV:   2    -0.364229343551E+02   -0.12520E-03   -0.30193E-03 13024   0.515E-01    0.454E-02
DAV:   3    -0.364229223471E+02    0.12008E-04   -0.27869E-04 12352   0.141E-01    0.306E-02
DAV:   4    -0.364229154869E+02    0.68603E-05   -0.90804E-05 12920   0.107E-01    0.194E-02
DAV:   5    -0.364229106764E+02    0.48104E-05   -0.17084E-05 14948   0.468E-02    0.566E-03
DAV:   6    -0.364229106787E+02   -0.22505E-08   -0.43536E-06 12172   0.179E-02    0.186E-03
DAV:   7    -0.364229106834E+02   -0.47307E-08   -0.63184E-07 11020   0.858E-03    0.127E-03
DAV:   8    -0.364229106487E+02    0.34738E-07   -0.10149E-07 12120   0.544E-03    0.619E-04
DAV:   9    -0.364229106269E+02    0.21766E-07   -0.32084E-08  9512   0.260E-03    0.177E-04
DAV:  10    -0.364229106227E+02    0.41778E-08   -0.14394E-08  5936   0.105E-03
  51 F= -.36422911E+02 E0= -.36388972E+02  d E =-.251801E-03
 curvature:  -2.45 expect dE=-0.115E-02 dE for cont linesearch -0.233E-11
 trial: gam= 0.36341 g(F)=  0.413E-03 g(S)=  0.559E-04 ort = 0.125E-06 (trialstep = 0.123E+00)
 search vector abs. value=  0.264E-02
 bond charge predicted
       N       E                     dE             d eps       ncg     rms          rms(c)
DAV:   1    -0.364229608232E+02   -0.50196E-04   -0.90011E-03 10004   0.571E-01    0.385E-02
DAV:   2    -0.364229712052E+02   -0.10382E-04   -0.40492E-04 12320   0.194E-01    0.171E-02
DAV:   3    -0.364229691750E+02    0.20301E-05   -0.36565E-05 13232   0.548E-02    0.113E-02
DAV:   4    -0.364229680980E+02    0.10771E-05   -0.14210E-05 13608   0.410E-02    0.735E-03
DAV:   5    -0.364229671404E+02    0.95754E-06   -0.31155E-06 15352   0.208E-02    0.203E-03
DAV:   6    -0.364229670610E+02    0.79413E-07   -0.66631E-07 11924   0.694E-03    0.786E-04
DAV:   7    -0.364229670576E+02    0.33847E-08   -0.88175E-08 10604   0.303E-03
  52 F= -.36422967E+02 E0= -.36389025E+02  d E =-.564349E-04
 ZBRENT: can't locate minimum, use default step
 trial-energy change:   -0.000056  1 .order   -0.000056   -0.000058   -0.000055
 step:   0.4930(harm=  2.1520)  dis= 0.00268  next Energy=   -36.423416 (dE=-0.505E-03)
 bond charge predicted
       N       E                     dE             d eps       ncg     rms          rms(c)
DAV:   1    -0.364230587295E+02   -0.91668E-04   -0.81042E-02 10004   0.171E+00    0.115E-01
DAV:   2    -0.364231505381E+02   -0.91809E-04   -0.36431E-03 12312   0.583E-01    0.511E-02
DAV:   3    -0.364231333570E+02    0.17181E-04   -0.32871E-04 13248   0.164E-01    0.338E-02
DAV:   4    -0.364231246280E+02    0.87290E-05   -0.12728E-04 13624   0.123E-01    0.221E-02
DAV:   5    -0.364231164498E+02    0.81782E-05   -0.28055E-05 15392   0.623E-02    0.606E-03
DAV:   6    -0.364231161116E+02    0.33819E-06   -0.59780E-06 11932   0.208E-02    0.236E-03
DAV:   7    -0.364231161037E+02    0.79090E-08   -0.80803E-07 10700   0.905E-03    0.142E-03
DAV:   8    -0.364231161148E+02   -0.11045E-07   -0.91857E-08 12536   0.678E-03    0.645E-04
DAV:   9    -0.364231161277E+02   -0.12943E-07   -0.45879E-08 10184   0.230E-03    0.174E-04
DAV:  10    -0.364231161299E+02   -0.21751E-08   -0.14021E-08  6020   0.158E-03
  53 F= -.36423116E+02 E0= -.36389164E+02  d E =-.205507E-03
 curvature:  -2.00 expect dE=-0.585E-03 dE for cont linesearch -0.988E-04
 ZBRENT: increasing intervall
 opt :   1.2326  next Energy=   -36.423322 (dE=-0.412E-03)
 bond charge predicted
       N       E                     dE             d eps       ncg     rms          rms(c)
DAV:   1    -0.364230878470E+02    0.28281E-04   -0.32432E-01 10004   0.343E+00    0.231E-01
DAV:   2    -0.364234568840E+02   -0.36904E-03   -0.14584E-02 12260   0.117E+00    0.102E-01
DAV:   3    -0.364233903998E+02    0.66484E-04   -0.13127E-03 13272   0.329E-01    0.674E-02
DAV:   4    -0.364233567397E+02    0.33660E-04   -0.50555E-04 13640   0.244E-01    0.441E-02
DAV:   5    -0.364233243866E+02    0.32353E-04   -0.11230E-04 15372   0.124E-01    0.121E-02
DAV:   6    -0.364233234172E+02    0.96935E-06   -0.23782E-05 11916   0.413E-02    0.472E-03
DAV:   7    -0.364233234029E+02    0.14380E-07   -0.32628E-06 10680   0.179E-02    0.283E-03
DAV:   8    -0.364233234014E+02    0.14206E-08   -0.37068E-07 13532   0.133E-02    0.126E-03
DAV:   9    -0.364233234282E+02   -0.26799E-07   -0.18874E-07 13644   0.439E-03    0.362E-04
DAV:  10    -0.364233234345E+02   -0.62146E-08   -0.51701E-08 10520   0.291E-03
  54 F= -.36423323E+02 E0= -.36389352E+02  d E =-.412812E-03
 curvature:  -4.18 expect dE=-0.752E-03 dE for cont linesearch -0.617E-04
 ZBRENT: increasing intervall
 opt :   2.7116  next Energy=   -36.423374 (dE=-0.463E-03)
 bond charge predicted
       N       E                     dE             d eps       ncg     rms          rms(c)
DAV:   1    -0.364223934707E+02    0.92996E-03   -0.12989E+00 10000   0.689E+00    0.461E-01
DAV:   2    -0.364238906246E+02   -0.14972E-02   -0.58379E-02 12244   0.236E+00    0.204E-01
DAV:   3    -0.364236337353E+02    0.25689E-03   -0.52217E-03 13300   0.656E-01    0.134E-01
DAV:   4    -0.364235038380E+02    0.12990E-03   -0.19984E-03 13648   0.483E-01    0.884E-02
DAV:   5    -0.364233743036E+02    0.12953E-03   -0.44972E-04 15236   0.247E-01    0.240E-02
DAV:   6    -0.364233712067E+02    0.30969E-05   -0.94216E-05 11964   0.818E-02    0.945E-03
DAV:   7    -0.364233712032E+02    0.35020E-08   -0.13478E-05 10708   0.359E-02    0.565E-03
DAV:   8    -0.364233711026E+02    0.10061E-06   -0.15269E-06 13800   0.259E-02    0.243E-03
DAV:   9    -0.364233711629E+02   -0.60294E-07   -0.73687E-07 13168   0.754E-03    0.740E-04
DAV:  10    -0.364233711817E+02   -0.18795E-07   -0.19597E-07 11664   0.599E-03    0.521E-04
DAV:  11    -0.364233711941E+02   -0.12388E-07   -0.14798E-08  7348   0.156E-03    0.277E-04
DAV:  12    -0.364233712049E+02   -0.10823E-07   -0.79614E-09  6380   0.140E-03    0.104E-04
DAV:  13    -0.364233712075E+02   -0.26321E-08   -0.27553E-09  5864   0.674E-04
  55 F= -.36423371E+02 E0= -.36389362E+02  d E =-.460585E-03
 curvature:  -3.41 expect dE=-0.170E-02 dE for cont linesearch -0.201E-04
 ZBRENT: bracketing found
 ZBRENT: interpolating
 opt :   2.1387  next Energy=   -36.423407 (dE=-0.496E-03)
 bond charge predicted
       N       E                     dE             d eps       ncg     rms          rms(c)
DAV:   1    -0.364232742239E+02    0.96981E-04   -0.19431E-01 10004   0.264E+00    0.179E-01
DAV:   2    -0.364234874184E+02   -0.21319E-03   -0.87214E-03 12376   0.893E-01    0.789E-02
DAV:   3    -0.364234471565E+02    0.40262E-04   -0.78529E-04 13232   0.255E-01    0.523E-02
DAV:   4    -0.364234279704E+02    0.19186E-04   -0.30616E-04 13552   0.190E-01    0.341E-02
DAV:   5    -0.364234095227E+02    0.18448E-04   -0.67314E-05 15536   0.957E-02    0.945E-03
DAV:   6    -0.364234094257E+02    0.96998E-07   -0.14355E-05 11844   0.319E-02    0.364E-03
DAV:   7    -0.364234094273E+02   -0.15457E-08   -0.17735E-06 10772   0.136E-02    0.220E-03
DAV:   8    -0.364234093633E+02    0.63914E-07   -0.22544E-07 13252   0.108E-02    0.102E-03
DAV:   9    -0.364234093462E+02    0.17110E-07   -0.11695E-07 13416   0.371E-03    0.280E-04
DAV:  10    -0.364234093465E+02   -0.25193E-09   -0.31439E-08  8884   0.219E-03
  56 F= -.36423409E+02 E0= -.36389415E+02  d E =-.498724E-03
 curvature:  -6.05 expect dE=-0.177E-02 dE for cont linesearch -0.195E-07
 trial: gam= 0.61863 g(F)=  0.161E-03 g(S)=  0.131E-03 ort =-0.292E-05 (trialstep = 0.526E+00)
 search vector abs. value=  0.130E-02
 bond charge predicted
       N       E                     dE             d eps       ncg     rms          rms(c)
DAV:   1    -0.364233669332E+02    0.42413E-04   -0.79610E-02 10104   0.159E+00    0.829E-02
DAV:   2    -0.364235240471E+02   -0.15711E-03   -0.24372E-03 12048   0.441E-01    0.484E-02
DAV:   3    -0.364235085446E+02    0.15502E-04   -0.17232E-04 12044   0.129E-01    0.300E-02
DAV:   4    -0.364235017946E+02    0.67501E-05   -0.75577E-05 14196   0.802E-02    0.184E-02
DAV:   5    -0.364234969685E+02    0.48261E-05   -0.37850E-05 13760   0.642E-02    0.532E-03
DAV:   6    -0.364234970548E+02   -0.86291E-07   -0.61986E-06 11012   0.288E-02    0.280E-03
DAV:   7    -0.364234970732E+02   -0.18442E-07   -0.10472E-06 11764   0.146E-02    0.167E-03
DAV:   8    -0.364234970409E+02    0.32302E-07   -0.22569E-07 11748   0.861E-03    0.880E-04
DAV:   9    -0.364234970317E+02    0.91941E-08   -0.71083E-08 11592   0.399E-03
  57 F= -.36423497E+02 E0= -.36389510E+02  d E =-.876852E-04
 trial-energy change:   -0.000088  1 .order   -0.000090   -0.000153   -0.000027
 step:   0.6615(harm=  0.6419)  dis= 0.00256  next Energy=   -36.423501 (dE=-0.912E-04)
 bond charge predicted
       N       E                     dE             d eps       ncg     rms          rms(c)
DAV:   1    -0.364234912890E+02    0.57519E-05   -0.52454E-03 10108   0.407E-01    0.212E-02
DAV:   2    -0.364235017112E+02   -0.10422E-04   -0.16086E-04 12072   0.113E-01    0.124E-02
DAV:   3    -0.364235007883E+02    0.92293E-06   -0.11369E-05 12032   0.330E-02    0.771E-03
DAV:   4    -0.364235004229E+02    0.36541E-06   -0.49872E-06 14176   0.206E-02    0.472E-03
DAV:   5    -0.364235001068E+02    0.31610E-06   -0.24968E-06 13764   0.165E-02    0.137E-03
DAV:   6    -0.364235001185E+02   -0.11737E-07   -0.40969E-07 11004   0.737E-03    0.723E-04
DAV:   7    -0.364235001169E+02    0.16175E-08   -0.68933E-08 10908   0.375E-03
  58 F= -.36423500E+02 E0= -.36389515E+02  d E =-.907704E-04
 curvature:  -1.39 expect dE=-0.767E-03 dE for cont linesearch -0.115E-06
 trial: gam= 1.91741 g(F)=  0.499E-03 g(S)=  0.506E-04 ort =-0.103E-04 (trialstep = 0.136E+00)
 search vector abs. value=  0.528E-02
 bond charge predicted
       N       E                     dE             d eps       ncg     rms          rms(c)
DAV:   1    -0.364235502510E+02   -0.50132E-04   -0.20659E-02 10160   0.795E-01    0.399E-02
DAV:   2    -0.364235764060E+02   -0.26155E-04   -0.52748E-04 13256   0.244E-01    0.290E-02
DAV:   3    -0.364235713057E+02    0.51002E-05   -0.90999E-05 13788   0.106E-01    0.183E-02
DAV:   4    -0.364235669696E+02    0.43362E-05   -0.22472E-05 13452   0.437E-02    0.930E-03
DAV:   5    -0.364235661332E+02    0.83639E-06   -0.56022E-06 11484   0.227E-02    0.252E-03
DAV:   6    -0.364235662018E+02   -0.68649E-07   -0.11930E-06 11756   0.141E-02    0.124E-03
DAV:   7    -0.364235662054E+02   -0.36057E-08   -0.16070E-07 11692   0.718E-03    0.796E-04
DAV:   8    -0.364235662144E+02   -0.89558E-08   -0.61643E-08 10320   0.301E-03
  59 F= -.36423566E+02 E0= -.36389564E+02  d E =-.660975E-04
 ZBRENT: can't locate minimum, use default step
 trial-energy change:   -0.000066  1 .order   -0.000067   -0.000072   -0.000063
 step:   0.5438(harm=  1.0323)  dis= 0.00285  next Energy=   -36.423774 (dE=-0.274E-03)
 bond charge predicted
       N       E                     dE             d eps       ncg     rms          rms(c)
DAV:   1    -0.364235698440E+02   -0.36386E-05   -0.18592E-01 10160   0.238E+00    0.119E-01
DAV:   2    -0.364238054355E+02   -0.23559E-03   -0.47229E-03 13280   0.726E-01    0.869E-02
DAV:   3    -0.364237576064E+02    0.47829E-04   -0.81183E-04 13780   0.316E-01    0.547E-02
DAV:   4    -0.364237177890E+02    0.39817E-04   -0.20157E-04 13448   0.130E-01    0.278E-02
DAV:   5    -0.364237094671E+02    0.83219E-05   -0.50111E-05 11464   0.676E-02    0.755E-03
DAV:   6    -0.364237099953E+02   -0.52822E-06   -0.10651E-05 11748   0.417E-02    0.373E-03
DAV:   7    -0.364237099891E+02    0.61705E-08   -0.14186E-06 12028   0.216E-02    0.238E-03
DAV:   8    -0.364237100236E+02   -0.34478E-07   -0.55712E-07 12420   0.902E-03    0.798E-04
DAV:   9    -0.364237100226E+02    0.97725E-09   -0.11412E-07 12328   0.447E-03    0.324E-04
DAV:  10    -0.364237100205E+02    0.21487E-08   -0.20309E-08  7088   0.163E-03
  60 F= -.36423710E+02 E0= -.36389654E+02  d E =-.209904E-03
 curvature:  -3.61 expect dE=-0.781E-03 dE for cont linesearch -0.418E-04
 ZBRENT: increasing intervall
 opt :   1.3596  next Energy=   -36.423738 (dE=-0.238E-03)
 bond charge predicted
       N       E                     dE             d eps       ncg     rms          rms(c)
DAV:   1    -0.364232005987E+02    0.50942E-03   -0.74375E-01 10160   0.476E+00    0.239E-01
DAV:   2    -0.364241393599E+02   -0.93876E-03   -0.18817E-02 13316   0.144E+00    0.174E-01
[...]
 bond charge predicted
       N       E                     dE             d eps       ncg     rms          rms(c)
DAV:   1    -0.364663073167E+02   -0.56201E-06   -0.88525E-04 10112   0.183E-01    0.124E-02
DAV:   2    -0.364663079057E+02   -0.58903E-06   -0.37105E-05 11100   0.644E-02    0.574E-03
DAV:   3    -0.364663078323E+02    0.73406E-07   -0.41245E-06 12904   0.165E-02    0.378E-03
DAV:   4    -0.364663077073E+02    0.12504E-06   -0.14006E-06 12640   0.115E-02    0.223E-03
DAV:   5    -0.364663076371E+02    0.70156E-07   -0.30551E-07 14924   0.835E-03    0.403E-04
DAV:   6    -0.364663076512E+02   -0.14067E-07   -0.79082E-08 10604   0.246E-03    0.248E-04
DAV:   7    -0.364663076478E+02    0.34079E-08   -0.57278E-09  5656   0.964E-04
 176 F= -.36466308E+02 E0= -.36433178E+02  d E =-.400767E-05
 curvature:  -0.30 expect dE=-0.988E-06 dE for cont linesearch -0.915E-09
 trial: gam= 0.51033 g(F)=  0.208E-05 g(S)=  0.124E-05 ort = 0.459E-06 (trialstep = 0.231E+00)
 search vector abs. value=  0.216E-04
 bond charge predicted
       N       E                     dE             d eps       ncg     rms          rms(c)
DAV:   1    -0.364663082279E+02   -0.57672E-06   -0.23518E-04 10108   0.853E-02    0.398E-03
DAV:   2    -0.364663085218E+02   -0.29392E-06   -0.52260E-06 11568   0.207E-02    0.265E-03
DAV:   3    -0.364663084696E+02    0.52280E-07   -0.91279E-07 13000   0.111E-02    0.187E-03
DAV:   4    -0.364663084299E+02    0.39677E-07   -0.19980E-07 12032   0.485E-03    0.547E-04
DAV:   5    -0.364663084289E+02    0.10050E-08   -0.47938E-08 10564   0.194E-03
 177 F= -.36466308E+02 E0= -.36433182E+02  d E =-.781088E-06
 ZBRENT: can't locate minimum, use default step
 trial-energy change:   -0.000001  1 .order   -0.000001   -0.000001   -0.000001
 step:   0.9225(harm=  1.0324)  dis= 0.00038  next Energy=   -36.466309 (dE=-0.184E-05)
 bond charge predicted
       N       E                     dE             d eps       ncg     rms          rms(c)
DAV:   1    -0.364663082534E+02    0.17645E-06   -0.21192E-03 10108   0.256E-01    0.120E-02
DAV:   2    -0.364663108234E+02   -0.25700E-05   -0.47485E-05 11596   0.636E-02    0.801E-03
DAV:   3    -0.364663104007E+02    0.42272E-06   -0.83714E-06 12984   0.336E-02    0.562E-03
DAV:   4    -0.364663099418E+02    0.45891E-06   -0.18186E-06 12024   0.142E-02    0.167E-03
DAV:   5    -0.364663099353E+02    0.64938E-08   -0.42536E-07 11124   0.571E-03    0.530E-04
DAV:   6    -0.364663099375E+02   -0.21937E-08   -0.65008E-08 10696   0.241E-03
 178 F= -.36466310E+02 E0= -.36433192E+02  d E =-.228967E-05
 curvature:  -3.08 expect dE=-0.108E-04 dE for cont linesearch -0.116E-06
 ZBRENT: extrapolating
 opt :   1.2586  next Energy=   -36.466310 (dE=-0.244E-05)
 bond charge predicted
       N       E                     dE             d eps       ncg     rms          rms(c)
DAV:   1    -0.364663097846E+02    0.15067E-06   -0.50055E-04 10108   0.124E-01    0.587E-03
DAV:   2    -0.364663104100E+02   -0.62540E-06   -0.11259E-05 11588   0.309E-02    0.390E-03
DAV:   3    -0.364663103023E+02    0.10772E-06   -0.20015E-06 12912   0.163E-02    0.274E-03
DAV:   4    -0.364663102067E+02    0.95617E-07   -0.42696E-07 11988   0.695E-03    0.814E-04
DAV:   5    -0.364663102054E+02    0.12578E-08   -0.10054E-07 10936   0.265E-03    0.263E-04
DAV:   6    -0.364663102056E+02   -0.18281E-09   -0.13397E-08  5784   0.115E-03
 179 F= -.36466310E+02 E0= -.36433195E+02  d E =-.255780E-05
 curvature:  -4.02 expect dE=-0.196E-04 dE for cont linesearch -0.919E-10
 trial: gam= 1.06487 g(F)=  0.407E-05 g(S)=  0.800E-06 ort = 0.222E-07 (trialstep = 0.320E+00)
 search vector abs. value=  0.295E-04
 bond charge predicted
       N       E                     dE             d eps       ncg     rms          rms(c)
DAV:   1    -0.364663109587E+02   -0.75327E-06   -0.59844E-04 10124   0.142E-01    0.743E-03
DAV:   2    -0.364663117546E+02   -0.79589E-06   -0.17846E-05 11492   0.402E-02    0.371E-03
DAV:   3    -0.364663117329E+02    0.21701E-07   -0.16262E-06 12200   0.133E-02    0.238E-03
DAV:   4    -0.364663117156E+02    0.17318E-07   -0.61127E-07 12816   0.864E-03    0.141E-03
DAV:   5    -0.364663116933E+02    0.22241E-07   -0.19760E-07 13364   0.530E-03    0.261E-04
DAV:   6    -0.364663117004E+02   -0.70863E-08   -0.38248E-08  9468   0.193E-03
 180 F= -.36466312E+02 E0= -.36433196E+02  d E =-.149481E-05
 ZBRENT: can't locate minimum, use default step
 trial-energy change:   -0.000001  1 .order   -0.000001   -0.000002   -0.000001
 step:   1.2817(harm=  1.6455)  dis= 0.00057  next Energy=   -36.466314 (dE=-0.403E-05)
 bond charge predicted
       N       E                     dE             d eps       ncg     rms          rms(c)
DAV:   1    -0.364663081266E+02    0.35667E-05   -0.53816E-03 10124   0.425E-01    0.223E-02
DAV:   2    -0.364663155599E+02   -0.74333E-05   -0.16095E-04 11484   0.121E-01    0.111E-02
DAV:   3    -0.364663150635E+02    0.49639E-06   -0.14570E-05 12204   0.399E-02    0.709E-03
DAV:   4    -0.364663146809E+02    0.38266E-06   -0.54701E-06 12892   0.262E-02    0.424E-03
DAV:   5    -0.364663144056E+02    0.27532E-06   -0.18208E-06 13832   0.160E-02    0.787E-04
DAV:   6    -0.364663144412E+02   -0.35675E-07   -0.34006E-07 10792   0.581E-03    0.530E-04
DAV:   7    -0.364663144407E+02    0.50477E-09   -0.27802E-08  8836   0.192E-03
 181 F= -.36466314E+02 E0= -.36433197E+02  d E =-.423514E-05
 curvature:  -4.58 expect dE=-0.149E-04 dE for cont linesearch -0.252E-06
 ZBRENT: extrapolating
 opt :   1.7403  next Energy=   -36.466315 (dE=-0.453E-05)
 bond charge predicted
       N       E                     dE             d eps       ncg     rms          rms(c)
DAV:   1    -0.364663133349E+02    0.11063E-05   -0.12254E-03 10124   0.203E-01    0.106E-02
DAV:   2    -0.364663149908E+02   -0.16559E-05   -0.36495E-05 11480   0.577E-02    0.530E-03
DAV:   3    -0.364663149173E+02    0.73514E-07   -0.33375E-06 12240   0.195E-02    0.339E-03
DAV:   4    -0.364663148611E+02    0.56126E-07   -0.12580E-06 12776   0.127E-02    0.202E-03
DAV:   5    -0.364663148086E+02    0.52529E-07   -0.41790E-07 13956   0.764E-03    0.379E-04
DAV:   6    -0.364663148202E+02   -0.11554E-07   -0.78171E-08 10620   0.288E-03    0.256E-04
DAV:   7    -0.364663148201E+02    0.97771E-10   -0.58244E-09  5668   0.920E-04
 182 F= -.36466315E+02 E0= -.36433196E+02  d E =-.461448E-05
 curvature:  -5.30 expect dE=-0.292E-04 dE for cont linesearch -0.188E-09
 trial: gam= 1.14238 g(F)=  0.457E-05 g(S)=  0.931E-06 ort =-0.323E-07 (trialstep = 0.406E+00)
 search vector abs. value=  0.439E-04
 bond charge predicted
       N       E                     dE             d eps       ncg     rms          rms(c)
DAV:   1    -0.364663143757E+02    0.44452E-06   -0.14295E-03 10132   0.218E-01    0.112E-02
DAV:   2    -0.364663167255E+02   -0.23498E-05   -0.42571E-05 11656   0.585E-02    0.637E-03
DAV:   3    -0.364663165180E+02    0.20747E-06   -0.48850E-06 12864   0.196E-02    0.443E-03
DAV:   4    -0.364663162805E+02    0.23750E-06   -0.18416E-06 12744   0.145E-02    0.210E-03
DAV:   5    -0.364663162186E+02    0.61921E-07   -0.36118E-07 11184   0.762E-03    0.479E-04
DAV:   6    -0.364663162194E+02   -0.77898E-09   -0.95864E-08 10940   0.279E-03
 183 F= -.36466316E+02 E0= -.36433201E+02  d E =-.139930E-05
 trial-energy change:   -0.000001  1 .order   -0.000001   -0.000002   -0.000000
 step:   0.4542(harm=  0.4761)  dis= 0.00024  next Energy=   -36.466316 (dE=-0.142E-05)
 bond charge predicted
       N       E                     dE             d eps       ncg     rms          rms(c)
DAV:   1    -0.364663162194E+02   -0.76125E-09   -0.20427E-05 10136   0.262E-02    0.140E-03
DAV:   2    -0.364663162503E+02   -0.30959E-07   -0.63401E-07 11656   0.752E-03    0.766E-04
DAV:   3    -0.364663162509E+02   -0.55024E-09   -0.68702E-08 10704   0.289E-03
 184 F= -.36466316E+02 E0= -.36433203E+02  d E =-.143079E-05
 curvature:  -1.73 expect dE=-0.851E-05 dE for cont linesearch -0.163E-07
 trial: gam= 0.79208 g(F)=  0.267E-05 g(S)=  0.225E-05 ort = 0.644E-06 (trialstep = 0.416E+00)
 search vector abs. value=  0.335E-04
 bond charge predicted
       N       E                     dE             d eps       ncg     rms          rms(c)
DAV:   1    -0.364663196992E+02   -0.34489E-05   -0.11315E-03 10180   0.199E-01    0.146E-02
DAV:   2    -0.364663193931E+02    0.30610E-06   -0.42763E-05 11468   0.633E-02    0.846E-03
DAV:   3    -0.364663188694E+02    0.52376E-06   -0.90242E-06 13000   0.298E-02    0.598E-03
DAV:   4    -0.364663182129E+02    0.65647E-06   -0.26446E-06 12756   0.170E-02    0.251E-03
DAV:   5    -0.364663181009E+02    0.11201E-06   -0.54028E-07 13044   0.739E-03    0.546E-04
DAV:   6    -0.364663181034E+02   -0.25275E-08   -0.13745E-07 10716   0.346E-03    0.367E-04
DAV:   7    -0.364663181092E+02   -0.57712E-08   -0.83277E-09  5708   0.140E-03
 185 F= -.36466318E+02 E0= -.36433197E+02  d E =-.185833E-05
 trial-energy change:   -0.000002  1 .order   -0.000002   -0.000002   -0.000001
 step:   1.1890(harm=  1.1890)  dis= 0.00055  next Energy=   -36.466319 (dE=-0.323E-05)
 bond charge predicted
       N       E                     dE             d eps       ncg     rms          rms(c)
DAV:   1    -0.364663249649E+02   -0.68615E-05   -0.39211E-03 10180   0.371E-01    0.271E-02
DAV:   2    -0.364663240640E+02    0.90093E-06   -0.14789E-04 11416   0.118E-01    0.155E-02
DAV:   3    -0.364663223386E+02    0.17254E-05   -0.30367E-05 12972   0.536E-02    0.110E-02
DAV:   4    -0.364663202594E+02    0.20792E-05   -0.91423E-06 12840   0.316E-02    0.467E-03
DAV:   5    -0.364663198934E+02    0.36601E-06   -0.18362E-06 13200   0.142E-02    0.102E-03
DAV:   6    -0.364663199117E+02   -0.18310E-07   -0.48206E-07 10724   0.649E-03    0.678E-04
DAV:   7    -0.364663199203E+02   -0.85979E-08   -0.35542E-08  9768   0.279E-03
 186 F= -.36466320E+02 E0= -.36433188E+02  d E =-.366943E-05
 curvature:  -3.66 expect dE=-0.701E-05 dE for cont linesearch -0.604E-07
 trial: gam= 0.37771 g(F)=  0.147E-05 g(S)=  0.444E-06 ort = 0.743E-06 (trialstep = 0.570E+00)
 search vector abs. value=  0.725E-05
 bond charge predicted
       N       E                     dE             d eps       ncg     rms          rms(c)
DAV:   1    -0.364663209576E+02   -0.10459E-05   -0.47731E-04 10260   0.124E-01    0.738E-03
DAV:   2    -0.364663212318E+02   -0.27416E-06   -0.11163E-05 12380   0.347E-02    0.439E-03
DAV:   3    -0.364663210967E+02    0.13505E-06   -0.16289E-06 13328   0.131E-02    0.305E-03
DAV:   4    -0.364663210085E+02    0.88164E-07   -0.83479E-07 13204   0.101E-02    0.115E-03
DAV:   5    -0.364663209971E+02    0.11431E-07   -0.15752E-07 10920   0.401E-03    0.296E-04
DAV:   6    -0.364663209963E+02    0.84265E-09   -0.29249E-08  8772   0.148E-03
 187 F= -.36466321E+02 E0= -.36433191E+02  d E =-.107598E-05
 trial-energy change:   -0.000001  1 .order   -0.000001   -0.000001   -0.000001
 step:   0.8289(harm=  1.2573)  dis= 0.00019  next Energy=   -36.466321 (dE=-0.124E-05)
 bond charge predicted
       N       E                     dE             d eps       ncg     rms          rms(c)
DAV:   1    -0.364663212679E+02   -0.27081E-06   -0.98291E-05 10260   0.562E-02    0.336E-03
DAV:   2    -0.364663213188E+02   -0.50851E-07   -0.22821E-06 12320   0.157E-02    0.199E-03
DAV:   3    -0.364663212984E+02    0.20326E-07   -0.33930E-07 13116   0.596E-03    0.139E-03
DAV:   4    -0.364663212909E+02    0.75315E-08   -0.17024E-07 12116   0.453E-03    0.517E-04
DAV:   5    -0.364663212892E+02    0.17444E-08   -0.29393E-08  6572   0.180E-03
 188 F= -.36466321E+02 E0= -.36433191E+02  d E =-.136887E-05
 curvature:  -1.27 expect dE=-0.185E-05 dE for cont linesearch -0.115E-06
 ZBRENT: increasing intervall
 opt :   1.3464  next Energy=   -36.466322 (dE=-0.159E-05)
 bond charge predicted
       N       E                     dE             d eps       ncg     rms          rms(c)
DAV:   1    -0.364663215005E+02   -0.20962E-06   -0.39275E-04 10256   0.112E-01    0.667E-03
DAV:   2    -0.364663217211E+02   -0.22053E-06   -0.90842E-06 12408   0.307E-02    0.397E-03
DAV:   3    -0.364663216142E+02    0.10685E-06   -0.13475E-06 13328   0.110E-02    0.278E-03
DAV:   4    -0.364663215426E+02    0.71589E-07   -0.68019E-07 13144   0.917E-03    0.104E-03
DAV:   5    -0.364663215328E+02    0.98539E-08   -0.12573E-07 10700   0.385E-03    0.271E-04
DAV:   6    -0.364663215313E+02    0.14620E-08   -0.24101E-08  7444   0.138E-03
 189 F= -.36466322E+02 E0= -.36433193E+02  d E =-.161101E-05
 curvature:  -2.41 expect dE=-0.950E-05 dE for cont linesearch -0.766E-08
 trial: gam= 2.36020 g(F)=  0.361E-05 g(S)=  0.323E-06 ort =-0.152E-06 (trialstep = 0.121E+00)
 search vector abs. value=  0.436E-04
 bond charge predicted
       N       E                     dE             d eps       ncg     rms          rms(c)
DAV:   1    -0.364663218600E+02   -0.32720E-06   -0.13040E-04 10296   0.638E-02    0.326E-03
DAV:   2    -0.364663219494E+02   -0.89455E-07   -0.27138E-06 12656   0.135E-02    0.203E-03
DAV:   3    -0.364663219330E+02    0.16405E-07   -0.33891E-07 14328   0.505E-03    0.132E-03
DAV:   4    -0.364663219023E+02    0.30710E-07   -0.16876E-07 10792   0.394E-03    0.497E-04
DAV:   5    -0.364663219092E+02   -0.68844E-08   -0.31655E-08  8448   0.179E-03
 190 F= -.36466322E+02 E0= -.36433192E+02  d E =-.377885E-06
 trial-energy change:   -0.000000  1 .order   -0.000000   -0.000000   -0.000000
 step:   0.3217(harm=  0.3217)  dis= 0.00019  next Energy=   -36.466322 (dE=-0.576E-06)
 bond charge predicted
       N       E                     dE             d eps       ncg     rms          rms(c)
DAV:   1    -0.364663220153E+02   -0.11301E-06   -0.36220E-04 10304   0.106E-01    0.542E-03
DAV:   2    -0.364663222976E+02   -0.28229E-06   -0.75556E-06 12608   0.226E-02    0.339E-03
DAV:   3    -0.364663222343E+02    0.63325E-07   -0.94636E-07 14520   0.874E-03    0.221E-03
DAV:   4    -0.364663221493E+02    0.84941E-07   -0.47247E-07 12932   0.648E-03    0.820E-04
DAV:   5    -0.364663221606E+02   -0.11295E-07   -0.83630E-08 10652   0.267E-03    0.247E-04
DAV:   6    -0.364663221629E+02   -0.22173E-08   -0.13010E-08  5536   0.166E-03
 191 F= -.36466322E+02 E0= -.36433189E+02  d E =-.631551E-06
 curvature:  -1.96 expect dE=-0.163E-05 dE for cont linesearch -0.342E-08
 trial: gam= 0.04744 g(F)=  0.808E-06 g(S)=  0.215E-07 ort =-0.276E-06 (trialstep = 0.161E+00)
 search vector abs. value=  0.901E-06
 bond charge predicted
       N       E                     dE             d eps       ncg     rms          rms(c)
DAV:   1    -0.364663222727E+02   -0.11207E-06   -0.46995E-06 10116   0.123E-02    0.543E-04
DAV:   2    -0.364663222800E+02   -0.73069E-08   -0.14095E-07 11472   0.353E-03    0.278E-04
DAV:   3    -0.364663222844E+02   -0.43797E-08   -0.12549E-08  5736   0.149E-03
 192 F= -.36466322E+02 E0= -.36433189E+02  d E =-.121542E-06
 ZBRENT: can't locate minimum, use default step
 trial-energy change:   -0.000000  1 .order   -0.000000   -0.000000   -0.000000
 step:   0.6433(harm=  0.9693)  dis= 0.00004  next Energy=   -36.466323 (dE=-0.395E-06)
 bond charge predicted
       N       E                     dE             d eps       ncg     rms          rms(c)
DAV:   1    -0.364663224361E+02   -0.15613E-06   -0.42259E-05 10104   0.367E-02    0.156E-03
DAV:   2    -0.364663225119E+02   -0.75793E-07   -0.11999E-06 11608   0.870E-03    0.845E-04
DAV:   3    -0.364663225245E+02   -0.12524E-07   -0.92176E-08 11560   0.273E-03    0.563E-04
DAV:   4    -0.364663225233E+02    0.11673E-08   -0.22822E-08  6216   0.239E-03
 193 F= -.36466323E+02 E0= -.36433191E+02  d E =-.360442E-06
 curvature:  -0.45 expect dE=-0.202E-06 dE for cont linesearch -0.483E-07
 trial: gam= 0.15942 g(F)=  0.439E-06 g(S)=  0.125E-07 ort = 0.312E-06 (trialstep = 0.257E+00)
 search vector abs. value=  0.574E-06
 bond charge predicted
       N       E                     dE             d eps       ncg     rms          rms(c)
DAV:   1    -0.364663225849E+02   -0.60407E-07   -0.82764E-06 10340   0.168E-02    0.920E-04
DAV:   2    -0.364663226343E+02   -0.49406E-07   -0.50294E-07 11712   0.499E-03    0.746E-04
DAV:   3    -0.364663226282E+02    0.61068E-08   -0.66211E-08  9536   0.238E-03
 194 F= -.36466323E+02 E0= -.36433193E+02  d E =-.104873E-06
 trial-energy change:   -0.000000  1 .order   -0.000000   -0.000000   -0.000000
 step:   0.4823(harm=  0.4823)  dis= 0.00004  next Energy=   -36.466323 (dE=-0.121E-06)
 bond charge predicted
       N       E                     dE             d eps       ncg     rms          rms(c)
DAV:   1    -0.364663226326E+02    0.16576E-08   -0.62785E-06 10388   0.149E-02    0.981E-04
DAV:   2    -0.364663226670E+02   -0.34381E-07   -0.41503E-07 11960   0.463E-03    0.780E-04
DAV:   3    -0.364663226594E+02    0.76338E-08   -0.66211E-08  9264   0.215E-03
 195 F= -.36466323E+02 E0= -.36433195E+02  d E =-.136070E-06
 curvature:  -0.28 expect dE=-0.129E-06 dE for cont linesearch -0.260E-10
 trial: gam= 1.15797 g(F)=  0.321E-06 g(S)=  0.146E-06 ort =-0.734E-08 (trialstep = 0.142E+00)
 search vector abs. value=  0.122E-05
 bond charge predicted
       N       E                     dE             d eps       ncg     rms          rms(c)
DAV:   1    -0.364663227296E+02   -0.62573E-07   -0.48578E-06 10248   0.142E-02    0.105E-03
DAV:   2    -0.364663227333E+02   -0.36976E-08   -0.23745E-07 11600   0.559E-03    0.501E-04
DAV:   3    -0.364663227257E+02    0.75793E-08   -0.19582E-08  6116   0.174E-03
 196 F= -.36466323E+02 E0= -.36433194E+02  d E =-.663254E-07
 trial-energy change:   -0.000000  1 .order   -0.000000   -0.000000   -0.000000
 step:   0.3746(harm=  0.3746)  dis= 0.00003  next Energy=   -36.466323 (dE=-0.859E-07)
 bond charge predicted
       N       E                     dE             d eps       ncg     rms          rms(c)
DAV:   1    -0.364663228217E+02   -0.88417E-07   -0.13086E-05 10248   0.233E-02    0.184E-03
DAV:   2    -0.364663228233E+02   -0.16512E-08   -0.65545E-07 11864   0.909E-03    0.903E-04
DAV:   3    -0.364663228045E+02    0.18797E-07   -0.53862E-08 10756   0.226E-03    0.494E-04
DAV:   4    -0.364663227926E+02    0.11955E-07   -0.20117E-08  5824   0.155E-03    0.307E-04
DAV:   5    -0.364663227891E+02    0.34856E-08   -0.10970E-08  5300   0.111E-03
 197 F= -.36466323E+02 E0= -.36433196E+02  d E =-.129735E-06
 curvature:  -0.50 expect dE=-0.175E-06 dE for cont linesearch -0.194E-07
 trial: gam= 0.11587 g(F)=  0.322E-06 g(S)=  0.299E-07 ort = 0.218E-06 (trialstep = 0.189E+00)
 search vector abs. value=  0.419E-06
 bond charge predicted
       N       E                     dE             d eps       ncg     rms          rms(c)
DAV:   1    -0.364663228304E+02   -0.37832E-07   -0.33168E-06 10340   0.990E-03    0.620E-04
DAV:   2    -0.364663228291E+02    0.13688E-08   -0.18328E-07 12208   0.333E-03    0.554E-04
DAV:   3    -0.364663228306E+02   -0.15348E-08   -0.33530E-08  6684   0.183E-03
 198 F= -.36466323E+02 E0= -.36433195E+02  d E =-.414834E-07
 trial-energy change:   -0.000000  1 .order   -0.000000   -0.000000   -0.000000
 step:   0.4304(harm=  0.4304)  dis= 0.00003  next Energy=   -36.466323 (dE=-0.811E-07)
 bond charge predicted
       N       E                     dE             d eps       ncg     rms          rms(c)
DAV:   1    -0.364663228353E+02   -0.62514E-08   -0.53684E-06 10360   0.126E-02    0.856E-04
DAV:   2    -0.364663228365E+02   -0.12064E-08   -0.30426E-07 12508   0.378E-03    0.796E-04
DAV:   3    -0.364663228377E+02   -0.11987E-08   -0.64180E-08  9900   0.238E-03
 199 F= -.36466323E+02 E0= -.36433193E+02  d E =-.486052E-07
 curvature:  -0.24 expect dE=-0.757E-07 dE for cont linesearch -0.173E-09
 trial: gam= 1.01023 g(F)=  0.234E-06 g(S)=  0.828E-07 ort =-0.174E-07 (trialstep = 0.140E+00)
 search vector abs. value=  0.709E-06
 reached required accuracy - stopping structural energy minimisation
 writing wavefunctions
Fri Dec 24 00:34:11 CST 2021
