Sun Mar  6 00:54:49 CST 2022
 running on   48 total cores
 distrk:  each k-point on   48 cores,    1 groups
 distr:  one band on   24 cores,    2 groups
 using from now: INCAR     
 vasp.5.3.5 31Mar14 (build Jan 11 2016 19:50:55) complex                        
  
 POSCAR found type information on POSCAR  B  C 
 POSCAR found :  2 types and       8 ions
 scaLAPACK will be used

 ----------------------------------------------------------------------------- 
|                                                                             |
|           W    W    AA    RRRRR   N    N  II  N    N   GGGG   !!!           |
|           W    W   A  A   R    R  NN   N  II  NN   N  G    G  !!!           |
|           W    W  A    A  R    R  N N  N  II  N N  N  G       !!!           |
|           W WW W  AAAAAA  RRRRR   N  N N  II  N  N N  G  GGG   !            |
|           WW  WW  A    A  R   R   N   NN  II  N   NN  G    G                |
|           W    W  A    A  R    R  N    N  II  N    N   GGGG   !!!           |
|                                                                             |
|      For optimal performance we recommend to set                            |
|        NCORE= 4 - approx SQRT( number of cores)                             |
|      NCORE specifies how many cores store one orbital (NPAR=cpu/NCORE).     |
|      This setting can  greatly improve the performance of VASP for DFT.     |
|      The default, NPAR=number of cores might be grossly inefficient         |
|      on modern multi-core architectures or massively parallel machines.     |
|      Do your own testing !!!!                                               |
|      Unfortunately you need to use the default for GW and RPA calculations. |
|      (for HF NCORE is supported but not extensively tested yet)             |
|                                                                             |
 ----------------------------------------------------------------------------- 

 LDA part: xc-table for Pade appr. of Perdew
 POSCAR, INCAR and KPOINTS ok, starting setup
 WARNING: small aliasing (wrap around) errors must be expected
 FFT: planning ...
 WAVECAR not read
 entering main loop
       N       E                     dE             d eps       ncg     rms          rms(c)
DAV:   1     0.182226001531E+03    0.18223E+03   -0.15327E+04  4480   0.163E+03
DAV:   2    -0.483894505579E+02   -0.23062E+03   -0.22509E+03  6460   0.288E+02
DAV:   3    -0.692722544817E+02   -0.20883E+02   -0.20674E+02  5316   0.889E+01
DAV:   4    -0.698918574114E+02   -0.61960E+00   -0.61755E+00  5856   0.176E+01
DAV:   5    -0.699055755098E+02   -0.13718E-01   -0.13713E-01  5724   0.246E+00    0.139E+01
DAV:   6    -0.642955446281E+02    0.56100E+01   -0.88716E+00  4680   0.157E+01    0.738E+00
DAV:   7    -0.628678063790E+02    0.14277E+01   -0.41692E+00  5180   0.109E+01    0.259E+00
DAV:   8    -0.628438336337E+02    0.23973E-01   -0.18482E-01  6032   0.260E+00    0.781E-01
DAV:   9    -0.628495643265E+02   -0.57307E-02   -0.11311E-02  5164   0.795E-01    0.208E-01
DAV:  10    -0.628523347367E+02   -0.27704E-02   -0.21248E-03  5648   0.348E-01    0.872E-02
DAV:  11    -0.628533398559E+02   -0.10051E-02   -0.65060E-04  4760   0.206E-01    0.296E-02
DAV:  12    -0.628534184446E+02   -0.78589E-04   -0.20591E-04  4968   0.107E-01    0.137E-02
DAV:  13    -0.628534003858E+02    0.18059E-04   -0.48958E-05  5396   0.488E-02    0.580E-03
DAV:  14    -0.628533934982E+02    0.68876E-05   -0.62489E-06  5352   0.189E-02    0.305E-03
DAV:  15    -0.628533930692E+02    0.42892E-06   -0.12056E-06  5352   0.840E-03    0.835E-04
DAV:  16    -0.628533931058E+02   -0.36557E-07   -0.22790E-07  5708   0.356E-03    0.535E-04
DAV:  17    -0.628533931257E+02   -0.19905E-07   -0.33494E-08  4688   0.136E-03    0.232E-04
DAV:  18    -0.628533931248E+02    0.90722E-09   -0.86993E-09  3164   0.693E-04
   1 F= -.62853393E+02 E0= -.62834336E+02  d E =-.628534E+02
 curvature:   0.00 expect dE= 0.000E+00 dE for cont linesearch  0.000E+00
 trial: gam= 0.00000 g(F)=  0.149E-01 g(S)=  0.121E-01 ort = 0.000E+00 (trialstep = 0.100E+01)
 search vector abs. value=  0.270E-01
 bond charge predicted
       N       E                     dE             d eps       ncg     rms          rms(c)
DAV:   1    -0.628413087922E+02    0.12084E-01   -0.27315E+00  4480   0.118E+01    0.839E-01
DAV:   2    -0.628260845613E+02    0.15224E-01   -0.10461E-01  5820   0.218E+00    0.395E-01
DAV:   3    -0.628224674540E+02    0.36171E-02   -0.18053E-02  5160   0.875E-01    0.144E-01
DAV:   4    -0.628220979619E+02    0.36949E-03   -0.23123E-03  5512   0.302E-01    0.564E-02
DAV:   5    -0.628220420455E+02    0.55916E-04   -0.35718E-04  5244   0.127E-01    0.204E-02
DAV:   6    -0.628220293181E+02    0.12727E-04   -0.48721E-05  5384   0.473E-02    0.105E-02
DAV:   7    -0.628220219584E+02    0.73597E-05   -0.55317E-06  5924   0.159E-02    0.425E-03
DAV:   8    -0.628220200405E+02    0.19179E-05   -0.18987E-06  5248   0.989E-03    0.142E-03
DAV:   9    -0.628220192518E+02    0.78871E-06   -0.53291E-07  5736   0.465E-03    0.127E-03
DAV:  10    -0.628220191962E+02    0.55645E-07   -0.68898E-08  5920   0.170E-03    0.318E-04
DAV:  11    -0.628220191897E+02    0.64792E-08   -0.77167E-09  3512   0.649E-04
   2 F= -.62822019E+02 E0= -.62806268E+02  d E =0.313739E-01
 trial-energy change:    0.031374  1 .order    0.031261   -0.027005    0.089527
 step:   0.2307(harm=  0.2317)  dis= 0.00248  next Energy=   -62.856507 (dE=-0.311E-02)
 bond charge predicted
       N       E                     dE             d eps       ncg     rms          rms(c)
DAV:   1    -0.628679202262E+02   -0.45901E-01   -0.16273E+00  4480   0.917E+00    0.647E-01
DAV:   2    -0.628589788716E+02    0.89414E-02   -0.63431E-02  5816   0.169E+00    0.304E-01
DAV:   3    -0.628567729526E+02    0.22059E-02   -0.10262E-02  5072   0.659E-01    0.112E-01
DAV:   4    -0.628565428015E+02    0.23015E-03   -0.13026E-03  5524   0.227E-01    0.423E-02
DAV:   5    -0.628565149848E+02    0.27817E-04   -0.20478E-04  5244   0.954E-02    0.151E-02
DAV:   6    -0.628565077016E+02    0.72832E-05   -0.26707E-05  5184   0.358E-02    0.806E-03
DAV:   7    -0.628565041042E+02    0.35974E-05   -0.36801E-06  6056   0.122E-02    0.292E-03
DAV:   8    -0.628565030333E+02    0.10709E-05   -0.67654E-07  5192   0.602E-03    0.101E-03
DAV:   9    -0.628565025802E+02    0.45305E-06   -0.29752E-07  5744   0.330E-03    0.875E-04
DAV:  10    -0.628565025492E+02    0.31018E-07   -0.21733E-08  4544   0.105E-03    0.281E-04
DAV:  11    -0.628565025393E+02    0.99565E-08   -0.90158E-09  3456   0.670E-04
   3 F= -.62856503E+02 E0= -.62838379E+02  d E =-.310941E-02
 curvature:  -0.12 expect dE=-0.216E-02 dE for cont linesearch -0.534E-07
 trial: gam= 0.69552 g(F)=  0.122E-01 g(S)=  0.643E-02 ort =-0.112E-03 (trialstep = 0.724E+00)
 search vector abs. value=  0.316E-01
 bond charge predicted
       N       E                     dE             d eps       ncg     rms          rms(c)
DAV:   1    -0.628638494822E+02   -0.73469E-02   -0.57029E-01  4520   0.597E+00    0.422E-01
DAV:   2    -0.628598718674E+02    0.39776E-02   -0.16222E-02  5208   0.870E-01    0.219E-01
DAV:   3    -0.628587766754E+02    0.10952E-02   -0.46692E-03  5192   0.396E-01    0.642E-02
DAV:   4    -0.628586785560E+02    0.98119E-04   -0.45292E-04  5312   0.126E-01    0.295E-02
DAV:   5    -0.628586473299E+02    0.31226E-04   -0.55616E-05  5164   0.495E-02    0.106E-02
DAV:   6    -0.628586415745E+02    0.57554E-05   -0.94642E-06  6088   0.193E-02    0.555E-03
DAV:   7    -0.628586388294E+02    0.27451E-05   -0.25686E-06  5568   0.992E-03    0.155E-03
DAV:   8    -0.628586382498E+02    0.57965E-06   -0.30725E-07  5532   0.384E-03    0.103E-03
DAV:   9    -0.628586380856E+02    0.16418E-06   -0.14661E-07  5464   0.243E-03    0.373E-04
DAV:  10    -0.628586380779E+02    0.76759E-08   -0.16048E-08  4308   0.858E-04
   4 F= -.62858638E+02 E0= -.62841220E+02  d E =-.213554E-02
 trial-energy change:   -0.002136  1 .order   -0.002191   -0.013454    0.009071
 step:   0.4296(harm=  0.4322)  dis= 0.00296  next Energy=   -62.860485 (dE=-0.398E-02)
 bond charge predicted
       N       E                     dE             d eps       ncg     rms          rms(c)
DAV:   1    -0.628613121570E+02   -0.26741E-02   -0.94036E-02  4488   0.244E+00    0.171E-01
DAV:   2    -0.628606689524E+02    0.64320E-03   -0.26963E-03  5216   0.354E-01    0.884E-02
DAV:   3    -0.628604989732E+02    0.16998E-03   -0.75034E-04  5200   0.159E-01    0.261E-02
DAV:   4    -0.628604846862E+02    0.14287E-04   -0.71882E-05  5312   0.502E-02    0.119E-02
DAV:   5    -0.628604811716E+02    0.35146E-05   -0.87339E-06  5164   0.197E-02    0.434E-03
DAV:   6    -0.628604805729E+02    0.59870E-06   -0.15079E-06  6060   0.766E-03    0.220E-03
DAV:   7    -0.628604802446E+02    0.32831E-06   -0.40120E-07  5680   0.384E-03    0.619E-04
DAV:   8    -0.628604801258E+02    0.11885E-06   -0.48424E-08  5556   0.149E-03    0.410E-04
DAV:   9    -0.628604800676E+02    0.58161E-07   -0.22075E-08  4600   0.928E-04    0.149E-04
DAV:  10    -0.628604800590E+02    0.85806E-08   -0.24349E-09  3080   0.354E-04
   5 F= -.62860480E+02 E0= -.62842812E+02  d E =-.397752E-02
 curvature:  -0.37 expect dE=-0.372E-02 dE for cont linesearch -0.103E-07
 trial: gam= 0.52504 g(F)=  0.292E-02 g(S)=  0.722E-02 ort = 0.297E-04 (trialstep = 0.665E+00)
 search vector abs. value=  0.189E-01
 bond charge predicted
       N       E                     dE             d eps       ncg     rms          rms(c)
DAV:   1    -0.628683414185E+02   -0.78614E-02   -0.30246E-01  4480   0.418E+00    0.291E-01
DAV:   2    -0.628651353210E+02    0.32061E-02   -0.15613E-02  5688   0.911E-01    0.152E-01
DAV:   3    -0.628647000598E+02    0.43526E-03   -0.42928E-03  5596   0.405E-01    0.694E-02
DAV:   4    -0.628646535970E+02    0.46463E-04   -0.42018E-04  5688   0.141E-01    0.321E-02
DAV:   5    -0.628646358455E+02    0.17751E-04   -0.87814E-05  5468   0.685E-02    0.593E-03
DAV:   6    -0.628646361445E+02   -0.29892E-06   -0.99516E-06  5780   0.217E-02    0.400E-03
DAV:   7    -0.628646360290E+02    0.11545E-06   -0.12831E-06  5216   0.783E-03    0.104E-03
DAV:   8    -0.628646360363E+02   -0.73117E-08   -0.15247E-07  5388   0.264E-03    0.515E-04
DAV:   9    -0.628646360358E+02    0.55752E-09   -0.30331E-08  4484   0.124E-03
   6 F= -.62864636E+02 E0= -.62847497E+02  d E =-.415598E-02
 trial-energy change:   -0.004156  1 .order   -0.004147   -0.006749   -0.001545
 step:   0.8621(harm=  0.8621)  dis= 0.00647  next Energy=   -62.864856 (dE=-0.438E-02)
 bond charge predicted
       N       E                     dE             d eps       ncg     rms          rms(c)
DAV:   1    -0.628651905413E+02   -0.55450E-03   -0.26517E-02  4480   0.124E+00    0.859E-02
DAV:   2    -0.628649121491E+02    0.27839E-03   -0.13584E-03  5692   0.270E-01    0.451E-02
DAV:   3    -0.628648746497E+02    0.37499E-04   -0.37900E-04  5592   0.121E-01    0.206E-02
DAV:   4    -0.628648706329E+02    0.40168E-05   -0.37904E-05  5652   0.423E-02    0.958E-03
DAV:   5    -0.628648691567E+02    0.14762E-05   -0.76662E-06  5460   0.204E-02    0.173E-03
DAV:   6    -0.628648691688E+02   -0.12102E-07   -0.87861E-07  5764   0.643E-03    0.116E-03
DAV:   7    -0.628648691624E+02    0.64013E-08   -0.10531E-07  5236   0.225E-03    0.304E-04
DAV:   8    -0.628648691692E+02   -0.68057E-08   -0.11760E-08  3164   0.767E-04
   7 F= -.62864869E+02 E0= -.62847869E+02  d E =-.438911E-02
 curvature:  -0.80 expect dE=-0.894E-02 dE for cont linesearch -0.827E-10
 trial: gam= 1.09796 g(F)=  0.528E-02 g(S)=  0.588E-02 ort =-0.140E-05 (trialstep = 0.392E+00)
 search vector abs. value=  0.339E-01
 bond charge predicted
       N       E                     dE             d eps       ncg     rms          rms(c)
DAV:   1    -0.628687257137E+02   -0.38566E-02   -0.24011E-01  4480   0.371E+00    0.173E-01
DAV:   2    -0.628682496434E+02    0.47607E-03   -0.57379E-03  5060   0.531E-01    0.950E-02
DAV:   3    -0.628679921420E+02    0.25750E-03   -0.12078E-03  5332   0.210E-01    0.289E-02
DAV:   4    -0.628679839026E+02    0.82394E-05   -0.84062E-05  5284   0.645E-02    0.164E-02
DAV:   5    -0.628679834150E+02    0.48755E-06   -0.19241E-05  5700   0.277E-02    0.477E-03
DAV:   6    -0.628679831528E+02    0.26220E-06   -0.27161E-06  5520   0.112E-02    0.227E-03
DAV:   7    -0.628679832264E+02   -0.73546E-07   -0.42113E-07  5036   0.479E-03    0.847E-04
DAV:   8    -0.628679832325E+02   -0.61714E-08   -0.55872E-08  5472   0.173E-03
   8 F= -.62867983E+02 E0= -.62851309E+02  d E =-.311406E-02
 trial-energy change:   -0.003114  1 .order   -0.003102   -0.004373   -0.001831
 step:   0.6616(harm=  0.6744)  dis= 0.00841  next Energy=   -62.868617 (dE=-0.375E-02)
 bond charge predicted
       N       E                     dE             d eps       ncg     rms          rms(c)
DAV:   1    -0.628689781697E+02   -0.99494E-03   -0.11347E-01  4480   0.255E+00    0.119E-01
DAV:   2    -0.628687626149E+02    0.21555E-03   -0.27155E-03  5060   0.365E-01    0.650E-02
DAV:   3    -0.628686439021E+02    0.11871E-03   -0.55784E-04  5352   0.144E-01    0.198E-02
DAV:   4    -0.628686400044E+02    0.38977E-05   -0.39543E-05  5300   0.443E-02    0.113E-02
DAV:   5    -0.628686398090E+02    0.19544E-06   -0.90318E-06  5652   0.190E-02    0.326E-03
DAV:   6    -0.628686396757E+02    0.13327E-06   -0.12812E-06  5528   0.767E-03    0.155E-03
DAV:   7    -0.628686397155E+02   -0.39771E-07   -0.20077E-07  5080   0.329E-03    0.588E-04
DAV:   8    -0.628686397178E+02   -0.22617E-08   -0.24100E-08  3892   0.120E-03
   9 F= -.62868640E+02 E0= -.62852183E+02  d E =-.377055E-02
 curvature:  -1.02 expect dE=-0.307E-01 dE for cont linesearch -0.109E-05
 trial: gam= 2.69741 g(F)=  0.259E-01 g(S)=  0.418E-02 ort = 0.190E-03 (trialstep = 0.544E-01)
 search vector abs. value=  0.278E+00
 bond charge predicted
       N       E                     dE             d eps       ncg     rms          rms(c)
DAV:   1    -0.628701997299E+02   -0.15600E-02   -0.35812E-02  4480   0.145E+00    0.574E-02
DAV:   2    -0.628701746846E+02    0.25045E-04   -0.82150E-04  5400   0.200E-01    0.340E-02
DAV:   3    -0.628701431562E+02    0.31528E-04   -0.11388E-04  5284   0.684E-02    0.866E-03
DAV:   4    -0.628701420785E+02    0.10778E-05   -0.92326E-06  5472   0.233E-02    0.488E-03
DAV:   5    -0.628701419743E+02    0.10418E-06   -0.16362E-06  5720   0.809E-03    0.196E-03
DAV:   6    -0.628701419135E+02    0.60802E-07   -0.26449E-07  5384   0.344E-03    0.749E-04
DAV:   7    -0.628701418915E+02    0.21933E-07   -0.39539E-08  5092   0.146E-03    0.253E-04
DAV:   8    -0.628701418934E+02   -0.18833E-08   -0.55545E-09  2948   0.539E-04
  10 F= -.62870142E+02 E0= -.62853723E+02  d E =-.150218E-02
 ZBRENT: can't locate minimum, use default step
 trial-energy change:   -0.001502  1 .order   -0.001503   -0.001664   -0.001343
 step:   0.2177(harm=  0.2819)  dis= 0.00660  next Energy=   -62.872948 (dE=-0.431E-02)
 bond charge predicted
       N       E                     dE             d eps       ncg     rms          rms(c)
DAV:   1    -0.628731864917E+02   -0.30446E-02   -0.32215E-01  4480   0.435E+00    0.171E-01
DAV:   2    -0.628729751596E+02    0.21133E-03   -0.73869E-03  5408   0.600E-01    0.102E-01
DAV:   3    -0.628726947457E+02    0.28041E-03   -0.10126E-03  5304   0.205E-01    0.262E-02
DAV:   4    -0.628726853488E+02    0.93969E-05   -0.84430E-05  5508   0.703E-02    0.148E-02
DAV:   5    -0.628726848894E+02    0.45943E-06   -0.14778E-05  5664   0.243E-02    0.591E-03
DAV:   6    -0.628726846876E+02    0.20184E-06   -0.23438E-06  5384   0.103E-02    0.224E-03
DAV:   7    -0.628726846193E+02    0.68225E-07   -0.35164E-07  5288   0.436E-03    0.754E-04
DAV:   8    -0.628726846308E+02   -0.11518E-07   -0.57006E-08  5692   0.159E-03    0.326E-04
DAV:   9    -0.628726846369E+02   -0.60911E-08   -0.78903E-09  3040   0.721E-04
  11 F= -.62872685E+02 E0= -.62856375E+02  d E =-.404492E-02
 curvature:  -1.18 expect dE=-0.179E-01 dE for cont linesearch -0.178E-03
 ZBRENT: extrapolating
 opt :   0.2758  next Energy=   -62.872873 (dE=-0.423E-02)
 bond charge predicted
       N       E                     dE             d eps       ncg     rms          rms(c)
DAV:   1    -0.628729249745E+02   -0.24034E-03   -0.40746E-02  4480   0.155E+00    0.606E-02
DAV:   2    -0.628728996388E+02    0.25336E-04   -0.93810E-04  5412   0.214E-01    0.360E-02
DAV:   3    -0.628728651982E+02    0.34441E-04   -0.12486E-04  5324   0.724E-02    0.950E-03
DAV:   4    -0.628728638724E+02    0.13257E-05   -0.10882E-05  5544   0.252E-02    0.530E-03
DAV:   5    -0.628728637406E+02    0.13181E-06   -0.18587E-06  5556   0.867E-03    0.209E-03
DAV:   6    -0.628728636794E+02    0.61242E-07   -0.28235E-07  5272   0.358E-03    0.779E-04
DAV:   7    -0.628728636586E+02    0.20800E-07   -0.42124E-08  5084   0.151E-03    0.270E-04
DAV:   8    -0.628728636607E+02   -0.20743E-08   -0.58560E-09  2956   0.562E-04
  12 F= -.62872864E+02 E0= -.62856591E+02  d E =-.422394E-02
 curvature:  -1.25 expect dE=-0.281E-01 dE for cont linesearch -0.124E-06
 trial: gam= 0.77168 g(F)=  0.197E-01 g(S)=  0.283E-02 ort =-0.166E-03 (trialstep = 0.987E-01)
 search vector abs. value=  0.188E+00
 bond charge predicted
       N       E                     dE             d eps       ncg     rms          rms(c)
DAV:   1    -0.628752223866E+02   -0.23587E-02   -0.66967E-02  4480   0.200E+00    0.969E-02
DAV:   2    -0.628750704478E+02    0.15194E-03   -0.16407E-03  5552   0.275E-01    0.544E-02
DAV:   3    -0.628749819935E+02    0.88454E-04   -0.37261E-04  5196   0.114E-01    0.152E-02
DAV:   4    -0.628749798216E+02    0.21719E-05   -0.27314E-05  5332   0.337E-02    0.731E-03
DAV:   5    -0.628749791205E+02    0.70105E-06   -0.33829E-06  5200   0.122E-02    0.241E-03
DAV:   6    -0.628749789999E+02    0.12060E-06   -0.50265E-07  5884   0.490E-03    0.100E-03
DAV:   7    -0.628749789601E+02    0.39844E-07   -0.73762E-08  5292   0.198E-03    0.312E-04
DAV:   8    -0.628749789548E+02    0.52687E-08   -0.10665E-08  3284   0.764E-04
  13 F= -.62874979E+02 E0= -.62858639E+02  d E =-.211529E-02
 ZBRENT: can't locate minimum, use default step
 trial-energy change:   -0.002115  1 .order   -0.002120   -0.002216   -0.002025
 step:   0.3948(harm=  1.1475)  dis= 0.00702  next Energy=   -62.885744 (dE=-0.129E-01)
 bond charge predicted
       N       E                     dE             d eps       ncg     rms          rms(c)
DAV:   1    -0.628822398101E+02   -0.72609E-02   -0.59862E-01  4480   0.597E+00    0.286E-01
DAV:   2    -0.628809696996E+02    0.12701E-02   -0.14590E-02  5560   0.823E-01    0.162E-01
DAV:   3    -0.628801945695E+02    0.77513E-03   -0.32540E-03  5192   0.338E-01    0.446E-02
DAV:   4    -0.628801781918E+02    0.16378E-04   -0.24026E-04  5332   0.999E-02    0.217E-02
DAV:   5    -0.628801733481E+02    0.48437E-05   -0.29327E-05  5208   0.361E-02    0.714E-03
DAV:   6    -0.628801726387E+02    0.70937E-06   -0.44133E-06  5908   0.145E-02    0.302E-03
DAV:   7    -0.628801724702E+02    0.16855E-06   -0.65035E-07  5276   0.591E-03    0.917E-04
DAV:   8    -0.628801724330E+02    0.37183E-07   -0.11066E-07  6032   0.227E-03    0.419E-04
DAV:   9    -0.628801724289E+02    0.40452E-08   -0.12404E-08  3444   0.867E-04
  14 F= -.62880172E+02 E0= -.62863614E+02  d E =-.730877E-02
 curvature:  -2.33 expect dE=-0.370E-01 dE for cont linesearch -0.269E-02
 ZBRENT: increasing intervall
 opt :   0.9870  next Energy=   -62.885462 (dE=-0.126E-01)
 bond charge predicted
       N       E                     dE             d eps       ncg     rms          rms(c)
DAV:   1    -0.628925308621E+02   -0.12358E-01   -0.23632E+00  4480   0.119E+01    0.551E-01
DAV:   2    -0.628883147480E+02    0.42161E-02   -0.57350E-02  5656   0.163E+00    0.316E-01
DAV:   3    -0.628853893897E+02    0.29254E-02   -0.11932E-02  5200   0.653E-01    0.849E-02
DAV:   4    -0.628853344956E+02    0.54894E-04   -0.87259E-04  5340   0.191E-01    0.421E-02
DAV:   5    -0.628853205954E+02    0.13900E-04   -0.10554E-04  5216   0.688E-02    0.138E-02
DAV:   6    -0.628853186631E+02    0.19323E-05   -0.16447E-05  5920   0.280E-02    0.597E-03
DAV:   7    -0.628853183753E+02    0.28778E-06   -0.24021E-06  5132   0.115E-02    0.178E-03
DAV:   8    -0.628853182953E+02    0.80074E-07   -0.40843E-07  6136   0.440E-03    0.831E-04
DAV:   9    -0.628853182868E+02    0.84415E-08   -0.62308E-08  5192   0.185E-03
  15 F= -.62885318E+02 E0= -.62868237E+02  d E =-.124546E-01
 curvature:  -4.58 expect dE=-0.136E+00 dE for cont linesearch -0.174E-03
 trial: gam= 0.84331 g(F)=  0.281E-01 g(S)=  0.161E-02 ort = 0.267E-02 (trialstep = 0.276E+00)
 search vector abs. value=  0.168E+00
 bond charge predicted
       N       E                     dE             d eps       ncg     rms          rms(c)
DAV:   1    -0.628905521392E+02   -0.52338E-02   -0.72664E-01  4480   0.661E+00    0.354E-01
DAV:   2    -0.628882666870E+02    0.22855E-02   -0.19636E-02  5840   0.102E+00    0.187E-01
DAV:   3    -0.628873665775E+02    0.90011E-03   -0.44939E-03  5352   0.424E-01    0.587E-02
DAV:   4    -0.628873154052E+02    0.51172E-04   -0.31881E-04  5812   0.133E-01    0.312E-02
DAV:   5    -0.628873043397E+02    0.11066E-04   -0.65550E-05  5252   0.555E-02    0.102E-02
DAV:   6    -0.628873037065E+02    0.63325E-06   -0.75930E-06  5548   0.194E-02    0.399E-03
DAV:   7    -0.628873035915E+02    0.11501E-06   -0.93058E-07  6084   0.716E-03    0.153E-03
DAV:   8    -0.628873035880E+02    0.34715E-08   -0.18388E-07  5212   0.313E-03    0.604E-04
DAV:   9    -0.628873035859E+02    0.21425E-08   -0.24397E-08  4632   0.114E-03
  16 F= -.62887304E+02 E0= -.62870752E+02  d E =-.198530E-02
 trial-energy change:   -0.001985  1 .order   -0.001999   -0.008830    0.004831
 step:   0.1786(harm=  0.1786)  dis= 0.00522  next Energy=   -62.888172 (dE=-0.285E-02)
 bond charge predicted
       N       E                     dE             d eps       ncg     rms          rms(c)
DAV:   1    -0.628885626029E+02   -0.12590E-02   -0.90990E-02  4480   0.234E+00    0.125E-01
DAV:   2    -0.628882769214E+02    0.28568E-03   -0.24684E-03  5840   0.362E-01    0.658E-02
DAV:   3    -0.628881674650E+02    0.10946E-03   -0.54552E-04  5380   0.148E-01    0.210E-02
DAV:   4    -0.628881614358E+02    0.60292E-05   -0.37528E-05  5820   0.456E-02    0.110E-02
DAV:   5    -0.628881601947E+02    0.12411E-05   -0.77069E-06  5236   0.191E-02    0.352E-03
DAV:   6    -0.628881601921E+02    0.26278E-08   -0.90178E-07  5464   0.673E-03    0.133E-03
DAV:   7    -0.628881601972E+02   -0.50870E-08   -0.10788E-07  5944   0.244E-03    0.524E-04
DAV:   8    -0.628881601966E+02    0.62232E-09   -0.21161E-08  4352   0.107E-03
  17 F= -.62888160E+02 E0= -.62871425E+02  d E =-.284191E-02
 curvature:  -0.47 expect dE=-0.336E-02 dE for cont linesearch -0.260E-08
 trial: gam= 0.36542 g(F)=  0.612E-02 g(S)=  0.103E-02 ort =-0.305E-04 (trialstep = 0.257E+00)
 search vector abs. value=  0.295E-01
 bond charge predicted
       N       E                     dE             d eps       ncg     rms          rms(c)
DAV:   1    -0.628899007619E+02   -0.17406E-02   -0.12687E-01  4480   0.276E+00    0.108E-01
DAV:   2    -0.628896324758E+02    0.26829E-03   -0.21403E-03  5336   0.339E-01    0.628E-02
DAV:   3    -0.628895457619E+02    0.86714E-04   -0.66808E-04  5452   0.159E-01    0.233E-02
DAV:   4    -0.628895384971E+02    0.72649E-05   -0.90845E-05  5520   0.646E-02    0.138E-02
DAV:   5    -0.628895352207E+02    0.32764E-05   -0.14037E-05  5212   0.257E-02    0.247E-03
DAV:   6    -0.628895352409E+02   -0.20241E-07   -0.11967E-06  6064   0.746E-03    0.156E-03
DAV:   7    -0.628895352170E+02    0.23883E-07   -0.98739E-08  5296   0.237E-03    0.368E-04
DAV:   8    -0.628895352186E+02   -0.16030E-08   -0.10205E-08  3288   0.795E-04
  18 F= -.62889535E+02 E0= -.62872705E+02  d E =-.137502E-02
 trial-energy change:   -0.001375  1 .order   -0.001373   -0.001835   -0.000910
 step:   0.5095(harm=  0.5095)  dis= 0.00558  next Energy=   -62.889981 (dE=-0.182E-02)
 bond charge predicted
       N       E                     dE             d eps       ncg     rms          rms(c)
DAV:   1    -0.628903260017E+02   -0.79078E-03   -0.12273E-01  4480   0.272E+00    0.106E-01
DAV:   2    -0.628900680823E+02    0.25792E-03   -0.20725E-03  5340   0.333E-01    0.616E-02
DAV:   3    -0.628899853011E+02    0.82781E-04   -0.64219E-04  5464   0.156E-01    0.229E-02
DAV:   4    -0.628899782657E+02    0.70354E-05   -0.88446E-05  5536   0.636E-02    0.136E-02
DAV:   5    -0.628899750517E+02    0.32140E-05   -0.13536E-05  5220   0.253E-02    0.241E-03
DAV:   6    -0.628899750772E+02   -0.25502E-07   -0.11858E-06  6068   0.742E-03    0.154E-03
DAV:   7    -0.628899750550E+02    0.22123E-07   -0.97934E-08  5256   0.235E-03    0.358E-04
DAV:   8    -0.628899750572E+02   -0.21225E-08   -0.10299E-08  3268   0.798E-04
  19 F= -.62889975E+02 E0= -.62873047E+02  d E =-.181486E-02
 curvature:  -1.05 expect dE=-0.102E-01 dE for cont linesearch -0.152E-06
 trial: gam= 1.27672 g(F)=  0.851E-02 g(S)=  0.114E-02 ort =-0.652E-04 (trialstep = 0.158E+00)
 search vector abs. value=  0.576E-01
 bond charge predicted
       N       E                     dE             d eps       ncg     rms          rms(c)
DAV:   1    -0.628912661028E+02   -0.12910E-02   -0.10907E-01  4480   0.253E+00    0.899E-02
DAV:   2    -0.628911222740E+02    0.14383E-03   -0.15819E-03  6340   0.276E-01    0.509E-02
DAV:   3    -0.628910591894E+02    0.63085E-04   -0.33296E-04  5316   0.107E-01    0.185E-02
DAV:   4    -0.628910550314E+02    0.41580E-05   -0.40460E-05  5692   0.380E-02    0.101E-02
DAV:   5    -0.628910531728E+02    0.18586E-05   -0.86115E-06  5172   0.184E-02    0.233E-03
DAV:   6    -0.628910531122E+02    0.60535E-07   -0.65641E-07  5320   0.576E-03    0.124E-03
DAV:   7    -0.628910530868E+02    0.25394E-07   -0.71612E-08  5420   0.207E-03    0.322E-04
DAV:   8    -0.628910530934E+02   -0.65829E-08   -0.63635E-09  3220   0.620E-04
  20 F= -.62891053E+02 E0= -.62873981E+02  d E =-.107804E-02
 trial-energy change:   -0.001078  1 .order   -0.001078   -0.001507   -0.000649
 step:   0.2766(harm=  0.2766)  dis= 0.00525  next Energy=   -62.891298 (dE=-0.132E-02)
 bond charge predicted
       N       E                     dE             d eps       ncg     rms          rms(c)
DAV:   1    -0.628914181305E+02   -0.36504E-03   -0.62312E-02  4480   0.191E+00    0.679E-02
DAV:   2    -0.628913370404E+02    0.81090E-04   -0.90783E-04  6340   0.209E-01    0.384E-02
DAV:   3    -0.628913013296E+02    0.35711E-04   -0.18751E-04  5312   0.807E-02    0.140E-02
DAV:   4    -0.628912989057E+02    0.24238E-05   -0.23063E-05  5676   0.287E-02    0.763E-03
DAV:   5    -0.628912978057E+02    0.11000E-05   -0.49569E-06  5176   0.140E-02    0.177E-03
DAV:   6    -0.628912977646E+02    0.41087E-07   -0.37885E-07  5320   0.438E-03    0.948E-04
DAV:   7    -0.628912977441E+02    0.20476E-07   -0.42069E-08  5228   0.159E-03    0.243E-04
DAV:   8    -0.628912977489E+02   -0.47935E-08   -0.38182E-09  3148   0.474E-04
  21 F= -.62891298E+02 E0= -.62874113E+02  d E =-.132269E-02
 curvature:  -0.83 expect dE=-0.726E-02 dE for cont linesearch -0.558E-09
 trial: gam= 0.87197 g(F)=  0.816E-02 g(S)=  0.555E-03 ort =-0.621E-05 (trialstep = 0.181E+00)
 search vector abs. value=  0.525E-01
 bond charge predicted
       N       E                     dE             d eps       ncg     rms          rms(c)
DAV:   1    -0.628926618011E+02   -0.13641E-02   -0.13917E-01  4480   0.286E+00    0.961E-02
DAV:   2    -0.628925163255E+02    0.14548E-03   -0.17311E-03  5580   0.293E-01    0.565E-02
DAV:   3    -0.628924294246E+02    0.86901E-04   -0.29938E-04  5300   0.110E-01    0.151E-02
DAV:   4    -0.628924269781E+02    0.24465E-05   -0.27732E-05  6084   0.349E-02    0.746E-03
DAV:   5    -0.628924263674E+02    0.61067E-06   -0.39253E-06  5268   0.121E-02    0.279E-03
DAV:   6    -0.628924262539E+02    0.11356E-06   -0.46775E-07  5424   0.479E-03    0.100E-03
DAV:   7    -0.628924262318E+02    0.22085E-07   -0.75791E-08  5328   0.214E-03    0.388E-04
DAV:   8    -0.628924262368E+02   -0.50302E-08   -0.13489E-08  3504   0.913E-04
  22 F= -.62892426E+02 E0= -.62875481E+02  d E =-.112849E-02
 trial-energy change:   -0.001128  1 .order   -0.001129   -0.001579   -0.000679
 step:   0.3182(harm=  0.3182)  dis= 0.00445  next Energy=   -62.892684 (dE=-0.139E-02)
 bond charge predicted
       N       E                     dE             d eps       ncg     rms          rms(c)
DAV:   1    -0.628928152458E+02   -0.38901E-03   -0.79228E-02  4480   0.216E+00    0.720E-02
DAV:   2    -0.628927356608E+02    0.79585E-04   -0.98145E-04  5580   0.221E-01    0.424E-02
DAV:   3    -0.628926870709E+02    0.48590E-04   -0.16606E-04  5292   0.818E-02    0.113E-02
DAV:   4    -0.628926856111E+02    0.14598E-05   -0.15550E-05  6068   0.261E-02    0.557E-03
DAV:   5    -0.628926852417E+02    0.36939E-06   -0.21876E-06  5272   0.905E-03    0.210E-03
DAV:   6    -0.628926851650E+02    0.76723E-07   -0.26171E-07  5432   0.358E-03    0.750E-04
DAV:   7    -0.628926851471E+02    0.17820E-07   -0.42695E-08  5208   0.161E-03    0.293E-04
DAV:   8    -0.628926851503E+02   -0.31791E-08   -0.72942E-09  3248   0.677E-04
  23 F= -.62892685E+02 E0= -.62875918E+02  d E =-.138740E-02
 curvature:  -0.96 expect dE=-0.161E-02 dE for cont linesearch -0.193E-07
 trial: gam= 0.19260 g(F)=  0.151E-02 g(S)=  0.164E-03 ort = 0.325E-04 (trialstep = 0.209E+00)
 search vector abs. value=  0.364E-02
 bond charge predicted
       N       E                     dE             d eps       ncg     rms          rms(c)
DAV:   1    -0.628929174030E+02   -0.23226E-03   -0.12952E-02  4480   0.861E-01    0.352E-02
DAV:   2    -0.628929014129E+02    0.15990E-04   -0.25527E-04  6204   0.113E-01    0.208E-02
DAV:   3    -0.628928906279E+02    0.10785E-04   -0.34972E-05  5328   0.390E-02    0.791E-03
DAV:   4    -0.628928896369E+02    0.99101E-06   -0.47008E-06  5988   0.142E-02    0.333E-03
DAV:   5    -0.628928895085E+02    0.12842E-06   -0.88838E-07  5220   0.648E-03    0.117E-03
DAV:   6    -0.628928894983E+02    0.10181E-07   -0.12892E-07  6100   0.253E-03    0.653E-04
DAV:   7    -0.628928894946E+02    0.37064E-08   -0.21645E-08  3432   0.118E-03
  24 F= -.62892889E+02 E0= -.62876166E+02  d E =-.204344E-03
 trial-energy change:   -0.000204  1 .order   -0.000203   -0.000351   -0.000055
 step:   0.2465(harm=  0.2477)  dis= 0.00107  next Energy=   -62.892894 (dE=-0.209E-03)
 bond charge predicted
       N       E                     dE             d eps       ncg     rms          rms(c)
DAV:   1    -0.628928956281E+02   -0.61298E-05   -0.42477E-04  4496   0.156E-01    0.637E-03
DAV:   2    -0.628928951115E+02    0.51655E-06   -0.84128E-06  6196   0.205E-02    0.378E-03
DAV:   3    -0.628928947910E+02    0.32060E-06   -0.11639E-06  5332   0.711E-03    0.143E-03
DAV:   4    -0.628928947686E+02    0.22334E-07   -0.15690E-07  5912   0.260E-03    0.604E-04
DAV:   5    -0.628928947702E+02   -0.15687E-08   -0.28234E-08  3844   0.120E-03
  25 F= -.62892895E+02 E0= -.62876179E+02  d E =-.209620E-03
 curvature:  -0.27 expect dE=-0.243E-03 dE for cont linesearch -0.519E-08
 trial: gam= 0.53740 g(F)=  0.762E-03 g(S)=  0.147E-03 ort = 0.840E-05 (trialstep = 0.216E+00)
 search vector abs. value=  0.197E-02
 bond charge predicted
       N       E                     dE             d eps       ncg     rms          rms(c)
DAV:   1    -0.628930163711E+02   -0.12160E-03   -0.74122E-03  4480   0.644E-01    0.382E-02
DAV:   2    -0.628929845497E+02    0.31821E-04   -0.17050E-04  5840   0.948E-02    0.200E-02
DAV:   3    -0.628929742476E+02    0.10302E-04   -0.58841E-05  5312   0.458E-02    0.677E-03
DAV:   4    -0.628929733362E+02    0.91134E-06   -0.54429E-06  5468   0.162E-02    0.388E-03
DAV:   5    -0.628929732433E+02    0.92933E-07   -0.10424E-06  5500   0.640E-03    0.103E-03
DAV:   6    -0.628929732480E+02   -0.46577E-08   -0.62143E-08  5308   0.182E-03
  26 F= -.62892973E+02 E0= -.62876275E+02  d E =-.784778E-04
 trial-energy change:   -0.000078  1 .order   -0.000077   -0.000197    0.000043
 step:   0.1786(harm=  0.1776)  dis= 0.00064  next Energy=   -62.892977 (dE=-0.822E-04)
 bond charge predicted
       N       E                     dE             d eps       ncg     rms          rms(c)
DAV:   1    -0.628929784502E+02   -0.52069E-05   -0.22486E-04  4488   0.112E-01    0.673E-03
DAV:   2    -0.628929773017E+02    0.11485E-05   -0.51375E-06  5832   0.165E-02    0.353E-03
DAV:   3    -0.628929768634E+02    0.43834E-06   -0.17888E-06  5288   0.798E-03    0.120E-03
DAV:   4    -0.628929768253E+02    0.38049E-07   -0.16543E-07  5380   0.282E-03    0.687E-04
DAV:   5    -0.628929767891E+02    0.36184E-07   -0.29815E-08  4692   0.110E-03    0.171E-04
DAV:   6    -0.628929767885E+02    0.67030E-09   -0.20261E-09  2676   0.342E-04
  27 F= -.62892977E+02 E0= -.62876275E+02  d E =-.820183E-04
 curvature:  -0.19 expect dE=-0.415E-04 dE for cont linesearch -0.221E-08
 trial: gam= 0.24881 g(F)=  0.110E-03 g(S)=  0.106E-03 ort =-0.477E-05 (trialstep = 0.209E+00)
 search vector abs. value=  0.336E-03
 bond charge predicted
       N       E                     dE             d eps       ncg     rms          rms(c)
DAV:   1    -0.628930277745E+02   -0.50985E-04   -0.89319E-04  4480   0.216E-01    0.172E-02
DAV:   2    -0.628930174999E+02    0.10275E-04   -0.31198E-05  5616   0.390E-02    0.892E-03
DAV:   3    -0.628930147637E+02    0.27362E-05   -0.14072E-05  5148   0.207E-02    0.302E-03
DAV:   4    -0.628930145524E+02    0.21128E-06   -0.79206E-07  5836   0.630E-03    0.144E-03
DAV:   5    -0.628930145067E+02    0.45687E-07   -0.21312E-07  5260   0.297E-03    0.546E-04
DAV:   6    -0.628930144954E+02    0.11337E-07   -0.19688E-08  4140   0.101E-03    0.228E-04
DAV:   7    -0.628930144935E+02    0.19127E-08   -0.40644E-09  2888   0.487E-04
  28 F= -.62893014E+02 E0= -.62876345E+02  d E =-.377050E-04
 trial-energy change:   -0.000038  1 .order   -0.000037   -0.000045   -0.000030
 step:   0.5011(harm=  0.6103)  dis= 0.00053  next Energy=   -62.893036 (dE=-0.595E-04)
 bond charge predicted
       N       E                     dE             d eps       ncg     rms          rms(c)
DAV:   1    -0.628930670517E+02   -0.52556E-04   -0.17521E-03  4480   0.303E-01    0.240E-02
DAV:   2    -0.628930466958E+02    0.20356E-04   -0.61240E-05  5616   0.546E-02    0.125E-02
DAV:   3    -0.628930412590E+02    0.54368E-05   -0.27654E-05  5156   0.291E-02    0.422E-03
DAV:   4    -0.628930408607E+02    0.39829E-06   -0.15585E-06  5840   0.883E-03    0.201E-03
DAV:   5    -0.628930407681E+02    0.92571E-07   -0.42086E-07  5264   0.418E-03    0.765E-04
DAV:   6    -0.628930407518E+02    0.16364E-07   -0.40814E-08  5112   0.141E-03    0.322E-04
DAV:   7    -0.628930407488E+02    0.30007E-08   -0.64117E-09  3020   0.625E-04
  29 F= -.62893041E+02 E0= -.62876416E+02  d E =-.639603E-04
 curvature:  -0.44 expect dE=-0.117E-03 dE for cont linesearch -0.190E-05
 trial: gam= 1.03641 g(F)=  0.162E-03 g(S)=  0.103E-03 ort = 0.381E-04 (trialstep = 0.127E+00)
 search vector abs. value=  0.705E-03
 bond charge predicted
       N       E                     dE             d eps       ncg     rms          rms(c)
DAV:   1    -0.628930846869E+02   -0.43935E-04   -0.60542E-04  4488   0.176E-01    0.146E-02
DAV:   2    -0.628930768118E+02    0.78751E-05   -0.18305E-05  5296   0.284E-02    0.732E-03
DAV:   3    -0.628930744686E+02    0.23432E-05   -0.10702E-05  5036   0.177E-02    0.230E-03
DAV:   4    -0.628930742934E+02    0.17523E-06   -0.10546E-06  5212   0.627E-03    0.102E-03
DAV:   5    -0.628930742118E+02    0.81555E-07   -0.17452E-07  5220   0.263E-03    0.360E-04
DAV:   6    -0.628930741942E+02    0.17605E-07   -0.26637E-08  3960   0.107E-03    0.208E-04
DAV:   7    -0.628930741825E+02    0.11724E-07   -0.46494E-09  2740   0.528E-04    0.612E-05
DAV:   8    -0.628930741837E+02   -0.12110E-08   -0.93137E-10  2592   0.241E-04
  30 F= -.62893074E+02 E0= -.62876453E+02  d E =-.334349E-04
 trial-energy change:   -0.000033  1 .order   -0.000034   -0.000039   -0.000028
 step:   0.4793(harm=  0.4793)  dis= 0.00053  next Energy=   -62.893114 (dE=-0.730E-04)
 bond charge predicted
       N       E                     dE             d eps       ncg     rms          rms(c)
DAV:   1    -0.628931916858E+02   -0.11750E-03   -0.46172E-03  4520   0.487E-01    0.402E-02
DAV:   2    -0.628931318159E+02    0.59870E-04   -0.13942E-04  5288   0.785E-02    0.202E-02
DAV:   3    -0.628931147437E+02    0.17072E-04   -0.81463E-05  5040   0.489E-02    0.637E-03
DAV:   4    -0.628931137246E+02    0.10190E-05   -0.80611E-06  5208   0.173E-02    0.281E-03
DAV:   5    -0.628931132850E+02    0.43959E-06   -0.13411E-06  5208   0.728E-03    0.993E-04
DAV:   6    -0.628931132321E+02    0.52917E-07   -0.22189E-07  6032   0.295E-03    0.607E-04
DAV:   7    -0.628931132017E+02    0.30427E-07   -0.38274E-08  4576   0.134E-03    0.178E-04
DAV:   8    -0.628931132033E+02   -0.16180E-08   -0.37297E-09  2988   0.501E-04
  31 F= -.62893113E+02 E0= -.62876504E+02  d E =-.724545E-04
 curvature:  -0.55 expect dE=-0.350E-03 dE for cont linesearch -0.141E-08
 trial: gam= 2.67487 g(F)=  0.542E-03 g(S)=  0.894E-04 ort = 0.134E-05 (trialstep = 0.245E-01)
 search vector abs. value=  0.568E-02
 bond charge predicted
       N       E                     dE             d eps       ncg     rms          rms(c)
DAV:   1    -0.628931319965E+02   -0.18795E-04   -0.17981E-04  4488   0.929E-02    0.864E-03
DAV:   2    -0.628931292627E+02    0.27339E-05   -0.50015E-06  4972   0.143E-02    0.422E-03
DAV:   3    -0.628931283545E+02    0.90815E-06   -0.36822E-06  5004   0.100E-02    0.119E-03
DAV:   4    -0.628931282995E+02    0.55008E-07   -0.14787E-07  5212   0.238E-03    0.502E-04
DAV:   5    -0.628931282714E+02    0.28114E-07   -0.24503E-08  3692   0.100E-03    0.175E-04
DAV:   6    -0.628931282623E+02    0.91054E-08   -0.28623E-09  2844   0.432E-04
  32 F= -.62893128E+02 E0= -.62876527E+02  d E =-.150590E-04
 ZBRENT: can't locate minimum, use default step
 trial-energy change:   -0.000015  1 .order   -0.000015   -0.000016   -0.000015
 step:   0.0981(harm=  0.3781)  dis= 0.00026  next Energy=   -62.893233 (dE=-0.120E-03)
 bond charge predicted
       N       E                     dE             d eps       ncg     rms          rms(c)
DAV:   1    -0.628932004919E+02   -0.72221E-04   -0.16177E-03  4488   0.279E-01    0.259E-02
DAV:   2    -0.628931755913E+02    0.24901E-04   -0.44977E-05  4980   0.429E-02    0.126E-02
DAV:   3    -0.628931677426E+02    0.78487E-05   -0.33140E-05  4992   0.300E-02    0.356E-03
DAV:   4    -0.628931674244E+02    0.31817E-06   -0.13328E-06  5184   0.715E-03    0.151E-03
DAV:   5    -0.628931672879E+02    0.13649E-06   -0.24441E-07  5288   0.301E-03    0.546E-04
DAV:   6    -0.628931672607E+02    0.27230E-07   -0.22310E-08  3796   0.104E-03    0.191E-04
DAV:   7    -0.628931672486E+02    0.12146E-07   -0.42644E-09  2996   0.540E-04    0.107E-04
DAV:   8    -0.628931672491E+02   -0.57344E-09   -0.94326E-10  2800   0.276E-04
  33 F= -.62893167E+02 E0= -.62876591E+02  d E =-.540458E-04
 curvature:  -0.63 expect dE=-0.293E-03 dE for cont linesearch -0.243E-04
 ZBRENT: increasing intervall
 opt :   0.2454  next Energy=   -62.893218 (dE=-0.104E-03)
 bond charge predicted
       N       E                     dE             d eps       ncg     rms          rms(c)
DAV:   1    -0.628933497700E+02   -0.18252E-03   -0.64651E-03  4488   0.557E-01    0.517E-02
DAV:   2    -0.628932501284E+02    0.99642E-04   -0.17949E-04  4980   0.858E-02    0.253E-02
DAV:   3    -0.628932190803E+02    0.31048E-04   -0.13245E-04  4984   0.600E-02    0.712E-03
DAV:   4    -0.628932179814E+02    0.10989E-05   -0.53329E-06  5184   0.143E-02    0.302E-03
DAV:   5    -0.628932175500E+02    0.43136E-06   -0.97869E-07  5288   0.602E-03    0.109E-03
DAV:   6    -0.628932174912E+02    0.58772E-07   -0.95109E-08  5220   0.208E-03    0.385E-04
DAV:   7    -0.628932174671E+02    0.24109E-07   -0.12962E-08  3304   0.914E-04    0.217E-04
DAV:   8    -0.628932174684E+02   -0.12442E-08   -0.31672E-09  3028   0.519E-04
  34 F= -.62893217E+02 E0= -.62876692E+02  d E =-.104265E-03
 curvature:  -1.31 expect dE=-0.553E-03 dE for cont linesearch -0.108E-04
 ZBRENT: increasing intervall
 opt :   0.5398  next Energy=   -62.893208 (dE=-0.943E-04)
 bond charge predicted
       N       E                     dE             d eps       ncg     rms          rms(c)
DAV:   1    -0.628937313280E+02   -0.51386E-03   -0.25809E-02  4488   0.111E+00    0.103E-01
DAV:   2    -0.628933338848E+02    0.39744E-03   -0.71546E-04  4976   0.171E-01    0.504E-02
DAV:   3    -0.628932105010E+02    0.12338E-03   -0.52943E-04  4988   0.120E-01    0.142E-02
DAV:   4    -0.628932064446E+02    0.40564E-05   -0.21411E-05  5172   0.286E-02    0.603E-03
DAV:   5    -0.628932049414E+02    0.15032E-05   -0.39379E-06  5292   0.121E-02    0.218E-03
DAV:   6    -0.628932048003E+02    0.14112E-06   -0.38135E-07  5216   0.417E-03    0.771E-04
DAV:   7    -0.628932047581E+02    0.42171E-07   -0.59047E-08  5308   0.183E-03    0.456E-04
DAV:   8    -0.628932047640E+02   -0.58885E-08   -0.91053E-09  3336   0.843E-04
  35 F= -.62893205E+02 E0= -.62876778E+02  d E =-.915607E-04
 curvature:   1.20 expect dE= 0.132E-02 dE for cont linesearch  0.171E-04
 ZBRENT: bracketing found
 ZBRENT: interpolating
 opt :   0.3727  next Energy=   -62.893231 (dE=-0.118E-03)
 bond charge predicted
       N       E                     dE             d eps       ncg     rms          rms(c)
DAV:   1    -0.628933998842E+02   -0.19513E-03   -0.83159E-03  4488   0.632E-01    0.586E-02
DAV:   2    -0.628932712297E+02    0.12865E-03   -0.23092E-04  4968   0.973E-02    0.286E-02
DAV:   3    -0.628932322540E+02    0.38976E-04   -0.16982E-04  4984   0.679E-02    0.807E-03
DAV:   4    -0.628932312617E+02    0.99233E-06   -0.68390E-06  5132   0.162E-02    0.343E-03
DAV:   5    -0.628932309851E+02    0.27654E-06   -0.12592E-06  5312   0.682E-03    0.123E-03
DAV:   6    -0.628932310235E+02   -0.38431E-07   -0.12188E-07  5160   0.236E-03    0.436E-04
DAV:   7    -0.628932310574E+02   -0.33823E-07   -0.16717E-08  3496   0.103E-03    0.245E-04
DAV:   8    -0.628932310585E+02   -0.11014E-08   -0.39659E-09  3032   0.577E-04
  36 F= -.62893231E+02 E0= -.62876748E+02  d E =-.117855E-03
 curvature:  -0.97 expect dE=-0.573E-03 dE for cont linesearch -0.116E-08
 trial: gam= 0.61028 g(F)=  0.446E-03 g(S)=  0.145E-03 ort =-0.261E-05 (trialstep = 0.942E-01)
 search vector abs. value=  0.270E-02
 bond charge predicted
       N       E                     dE             d eps       ncg     rms          rms(c)
DAV:   1    -0.628933074977E+02   -0.76440E-04   -0.14896E-03  4480   0.264E-01    0.253E-02
DAV:   2    -0.628932858324E+02    0.21665E-04   -0.40885E-05  5088   0.441E-02    0.125E-02
DAV:   3    -0.628932787945E+02    0.70379E-05   -0.30474E-05  5060   0.297E-02    0.302E-03
DAV:   4    -0.628932784978E+02    0.29668E-06   -0.11044E-06  5328   0.775E-03    0.149E-03
DAV:   5    -0.628932784100E+02    0.87820E-07   -0.22916E-07  5280   0.301E-03    0.682E-04
DAV:   6    -0.628932783762E+02    0.33803E-07   -0.31717E-08  4428   0.134E-03    0.210E-04
DAV:   7    -0.628932783745E+02    0.16869E-08   -0.39337E-09  3096   0.456E-04
  37 F= -.62893278E+02 E0= -.62876832E+02  d E =-.473160E-04
 trial-energy change:   -0.000047  1 .order   -0.000047   -0.000055   -0.000038
 step:   0.2538(harm=  0.3064)  dis= 0.00047  next Energy=   -62.893313 (dE=-0.816E-04)
 bond charge predicted
       N       E                     dE             d eps       ncg     rms          rms(c)
DAV:   1    -0.628934007753E+02   -0.12240E-03   -0.42712E-03  4480   0.447E-01    0.428E-02
DAV:   2    -0.628933383542E+02    0.62421E-04   -0.11719E-04  5148   0.747E-02    0.211E-02
DAV:   3    -0.628933180815E+02    0.20273E-04   -0.87348E-05  5068   0.502E-02    0.511E-03
DAV:   4    -0.628933173187E+02    0.76287E-06   -0.31611E-06  5348   0.131E-02    0.251E-03
DAV:   5    -0.628933170957E+02    0.22299E-06   -0.65538E-07  5272   0.509E-03    0.115E-03
DAV:   6    -0.628933170351E+02    0.60535E-07   -0.94239E-08  5128   0.227E-03    0.383E-04
DAV:   7    -0.628933170325E+02    0.26596E-08   -0.10503E-08  3268   0.706E-04
  38 F= -.62893317E+02 E0= -.62876933E+02  d E =-.859740E-04
 curvature:  -0.66 expect dE=-0.378E-03 dE for cont linesearch -0.233E-05
 trial: gam= 0.80317 g(F)=  0.457E-03 g(S)=  0.116E-03 ort = 0.977E-04 (trialstep = 0.126E+00)
 search vector abs. value=  0.247E-02
 bond charge predicted
       N       E                     dE             d eps       ncg     rms          rms(c)
DAV:   1    -0.628934256292E+02   -0.10859E-03   -0.23912E-03  4480   0.334E-01    0.275E-02
DAV:   2    -0.628933990515E+02    0.26578E-04   -0.49527E-05  4716   0.466E-02    0.142E-02
DAV:   3    -0.628933885760E+02    0.10475E-04   -0.36556E-05  4916   0.318E-02    0.358E-03
DAV:   4    -0.628933882896E+02    0.28633E-06   -0.11908E-06  5332   0.726E-03    0.170E-03
DAV:   5    -0.628933881880E+02    0.10159E-06   -0.24613E-07  5208   0.316E-03    0.664E-04
DAV:   6    -0.628933881686E+02    0.19447E-07   -0.19216E-08  3568   0.108E-03    0.241E-04
DAV:   7    -0.628933881603E+02    0.82719E-08   -0.54947E-09  2832   0.647E-04
  39 F= -.62893388E+02 E0= -.62876982E+02  d E =-.711279E-04
 trial-energy change:   -0.000071  1 .order   -0.000071   -0.000082   -0.000060
 step:   0.4662(harm=  0.4662)  dis= 0.00112  next Energy=   -62.893469 (dE=-0.152E-03)
 bond charge predicted
       N       E                     dE             d eps       ncg     rms          rms(c)
DAV:   1    -0.628937430875E+02   -0.35492E-03   -0.17388E-02  4480   0.901E-01    0.743E-02
DAV:   2    -0.628935484663E+02    0.19462E-03   -0.36048E-04  4716   0.126E-01    0.384E-02
DAV:   3    -0.628934723288E+02    0.76137E-04   -0.26647E-04  4920   0.859E-02    0.969E-03
DAV:   4    -0.628934705810E+02    0.17478E-05   -0.87072E-06  5332   0.196E-02    0.458E-03
DAV:   5    -0.628934699779E+02    0.60315E-06   -0.17965E-06  5224   0.853E-03    0.180E-03
DAV:   6    -0.628934699186E+02    0.59302E-07   -0.15204E-07  5096   0.290E-03    0.656E-04
DAV:   7    -0.628934699016E+02    0.16904E-07   -0.29220E-08  4236   0.143E-03    0.354E-04
DAV:   8    -0.628934699021E+02   -0.45588E-09   -0.48060E-09  2912   0.625E-04
  40 F= -.62893470E+02 E0= -.62877004E+02  d E =-.152870E-03
 curvature:  -0.89 expect dE=-0.520E-03 dE for cont linesearch -0.385E-08
 trial: gam= 1.35742 g(F)=  0.502E-03 g(S)=  0.860E-04 ort = 0.328E-05 (trialstep = 0.932E-01)
 search vector abs. value=  0.516E-02
 bond charge predicted
       N       E                     dE             d eps       ncg     rms          rms(c)
DAV:   1    -0.628935725834E+02   -0.10268E-03   -0.24816E-03  4480   0.332E-01    0.325E-02
DAV:   2    -0.628935322514E+02    0.40332E-04   -0.63075E-05  4960   0.515E-02    0.162E-02
DAV:   3    -0.628935195223E+02    0.12729E-04   -0.53535E-05  5044   0.378E-02    0.517E-03
DAV:   4    -0.628935189011E+02    0.62115E-06   -0.31131E-06  5152   0.103E-02    0.216E-03
DAV:   5    -0.628935187208E+02    0.18032E-06   -0.53642E-07  5160   0.440E-03    0.969E-04
DAV:   6    -0.628935186833E+02    0.37523E-07   -0.58374E-08  5236   0.171E-03    0.243E-04
DAV:   7    -0.628935186791E+02    0.41989E-08   -0.59713E-09  3156   0.592E-04
  41 F= -.62893519E+02 E0= -.62877040E+02  d E =-.487770E-04
 trial-energy change:   -0.000049  1 .order   -0.000049   -0.000055   -0.000042
 step:   0.3258(harm=  0.3921)  dis= 0.00068  next Energy=   -62.893574 (dE=-0.104E-03)
 bond charge predicted
       N       E                     dE             d eps       ncg     rms          rms(c)
DAV:   1    -0.628939187471E+02   -0.40006E-03   -0.15448E-02  4480   0.829E-01    0.811E-02
DAV:   2    -0.628936662500E+02    0.25250E-03   -0.39249E-04  4980   0.129E-01    0.404E-02
DAV:   3    -0.628935868531E+02    0.79397E-04   -0.33433E-04  5040   0.945E-02    0.129E-02
DAV:   4    -0.628935834005E+02    0.34526E-05   -0.19542E-05  5120   0.259E-02    0.541E-03
DAV:   5    -0.628935824025E+02    0.99800E-06   -0.33685E-06  5172   0.110E-02    0.242E-03
DAV:   6    -0.628935823063E+02    0.96260E-07   -0.36185E-07  5288   0.427E-03    0.606E-04
DAV:   7    -0.628935822991E+02    0.71745E-08   -0.41082E-08  5268   0.149E-03
  42 F= -.62893582E+02 E0= -.62877070E+02  d E =-.112397E-03
 curvature:  -1.62 expect dE=-0.127E-02 dE for cont linesearch -0.315E-05
 trial: gam= 1.01832 g(F)=  0.684E-03 g(S)=  0.979E-04 ort = 0.100E-03 (trialstep = 0.114E+00)
 search vector abs. value=  0.633E-02
 bond charge predicted
       N       E                     dE             d eps       ncg     rms          rms(c)
DAV:   1    -0.628937578583E+02   -0.17555E-03   -0.45520E-03  4480   0.454E-01    0.422E-02
DAV:   2    -0.628936922709E+02    0.65587E-04   -0.10906E-04  5024   0.669E-02    0.214E-02
DAV:   3    -0.628936680428E+02    0.24228E-04   -0.77978E-05  4988   0.457E-02    0.463E-03
DAV:   4    -0.628936675822E+02    0.46060E-06   -0.17765E-06  5336   0.906E-03    0.231E-03
DAV:   5    -0.628936673098E+02    0.27241E-06   -0.43044E-07  5536   0.427E-03    0.773E-04
DAV:   6    -0.628936672866E+02    0.23183E-07   -0.58256E-08  5356   0.167E-03    0.313E-04
DAV:   7    -0.628936672806E+02    0.60438E-08   -0.63835E-09  3088   0.588E-04
  43 F= -.62893667E+02 E0= -.62877178E+02  d E =-.849815E-04
 trial-energy change:   -0.000085  1 .order   -0.000086   -0.000101   -0.000071
 step:   0.3816(harm=  0.3816)  dis= 0.00117  next Energy=   -62.893751 (dE=-0.169E-03)
 bond charge predicted
       N       E                     dE             d eps       ncg     rms          rms(c)
DAV:   1    -0.628942539323E+02   -0.58665E-03   -0.25255E-02  4480   0.107E+00    0.993E-02
DAV:   2    -0.628938895402E+02    0.36439E-03   -0.60451E-04  5036   0.158E-01    0.504E-02
DAV:   3    -0.628937553102E+02    0.13423E-03   -0.43652E-04  4996   0.108E-01    0.110E-02
DAV:   4    -0.628937532523E+02    0.20580E-05   -0.99999E-06  5296   0.214E-02    0.547E-03
DAV:   5    -0.628937520745E+02    0.11777E-05   -0.24273E-06  5564   0.101E-02    0.182E-03
DAV:   6    -0.628937520361E+02    0.38492E-07   -0.32850E-07  5532   0.396E-03    0.739E-04
DAV:   7    -0.628937520248E+02    0.11250E-07   -0.39401E-08  5184   0.139E-03    0.455E-04
DAV:   8    -0.628937520300E+02   -0.51707E-08   -0.11579E-08  3176   0.880E-04
  44 F= -.62893752E+02 E0= -.62877316E+02  d E =-.169731E-03
 curvature:  -1.37 expect dE=-0.775E-03 dE for cont linesearch -0.477E-07
 trial: gam= 0.96293 g(F)=  0.435E-03 g(S)=  0.131E-03 ort = 0.149E-04 (trialstep = 0.164E+00)
 search vector abs. value=  0.647E-02
 bond charge predicted
       N       E                     dE             d eps       ncg     rms          rms(c)
DAV:   1    -0.628940243297E+02   -0.27230E-03   -0.95170E-03  4480   0.652E-01    0.626E-02
DAV:   2    -0.628938745157E+02    0.14981E-03   -0.23713E-04  5216   0.974E-02    0.308E-02
DAV:   3    -0.628938253850E+02    0.49131E-04   -0.19359E-04  4960   0.706E-02    0.932E-03
DAV:   4    -0.628938234084E+02    0.19766E-05   -0.10944E-05  5228   0.190E-02    0.354E-03
DAV:   5    -0.628938227277E+02    0.68070E-06   -0.16563E-06  5300   0.781E-03    0.160E-03
DAV:   6    -0.628938226282E+02    0.99446E-07   -0.18592E-07  5232   0.312E-03    0.564E-04
DAV:   7    -0.628938226170E+02    0.11185E-07   -0.27721E-08  4568   0.115E-03    0.293E-04
DAV:   8    -0.628938226230E+02   -0.59792E-08   -0.73793E-09  3060   0.640E-04
  45 F= -.62893823E+02 E0= -.62877356E+02  d E =-.705930E-04
 trial-energy change:   -0.000071  1 .order   -0.000071   -0.000095   -0.000046
 step:   0.3282(harm=  0.3195)  dis= 0.00085  next Energy=   -62.893846 (dE=-0.937E-04)
 bond charge predicted
       N       E                     dE             d eps       ncg     rms          rms(c)
DAV:   1    -0.628940472083E+02   -0.22459E-03   -0.95687E-03  4480   0.654E-01    0.627E-02
DAV:   2    -0.628938965921E+02    0.15062E-03   -0.23856E-04  5216   0.977E-02    0.309E-02
DAV:   3    -0.628938471919E+02    0.49400E-04   -0.19475E-04  4960   0.708E-02    0.934E-03
DAV:   4    -0.628938452020E+02    0.19899E-05   -0.10996E-05  5224   0.191E-02    0.355E-03
DAV:   5    -0.628938445155E+02    0.68652E-06   -0.16674E-06  5296   0.783E-03    0.160E-03
DAV:   6    -0.628938444149E+02    0.10053E-06   -0.18745E-07  5236   0.313E-03    0.567E-04
DAV:   7    -0.628938444037E+02    0.11210E-07   -0.28179E-08  4596   0.116E-03    0.294E-04
DAV:   8    -0.628938444094E+02   -0.56391E-08   -0.73474E-09  3052   0.639E-04
  46 F= -.62893844E+02 E0= -.62877347E+02  d E =-.923794E-04
 curvature:  -1.77 expect dE=-0.954E-03 dE for cont linesearch -0.625E-07
 trial: gam= 0.89153 g(F)=  0.397E-03 g(S)=  0.141E-03 ort =-0.151E-04 (trialstep = 0.197E+00)
 search vector abs. value=  0.565E-02
 bond charge predicted
       N       E                     dE             d eps       ncg     rms          rms(c)
DAV:   1    -0.628942295635E+02   -0.38516E-03   -0.12759E-02  4480   0.751E-01    0.757E-02
DAV:   2    -0.628940041589E+02    0.22540E-03   -0.33196E-04  5052   0.116E-01    0.377E-02
DAV:   3    -0.628939343426E+02    0.69816E-04   -0.32680E-04  5012   0.939E-02    0.123E-02
DAV:   4    -0.628939313863E+02    0.29563E-05   -0.17406E-05  5120   0.258E-02    0.479E-03
DAV:   5    -0.628939303985E+02    0.98773E-06   -0.28153E-06  5284   0.993E-03    0.213E-03
DAV:   6    -0.628939302840E+02    0.11450E-06   -0.33098E-07  5024   0.394E-03    0.671E-04
DAV:   7    -0.628939302698E+02    0.14264E-07   -0.28065E-08  4676   0.115E-03    0.460E-04
DAV:   8    -0.628939302706E+02   -0.87357E-09   -0.15958E-08  3068   0.880E-04
  47 F= -.62893930E+02 E0= -.62877457E+02  d E =-.858613E-04
 trial-energy change:   -0.000086  1 .order   -0.000086   -0.000103   -0.000069
 step:   0.5867(harm=  0.5867)  dis= 0.00110  next Energy=   -62.893998 (dE=-0.154E-03)
 bond charge predicted
       N       E                     dE             d eps       ncg     rms          rms(c)
DAV:   1    -0.628951708126E+02   -0.12405E-02   -0.50002E-02  4480   0.149E+00    0.150E-01
DAV:   2    -0.628942868544E+02    0.88396E-03   -0.12996E-03  5068   0.230E-01    0.746E-02
DAV:   3    -0.628940131072E+02    0.27375E-03   -0.12834E-03  5016   0.186E-01    0.245E-02
DAV:   4    -0.628940019709E+02    0.11136E-04   -0.68771E-05  5116   0.512E-02    0.948E-03
DAV:   5    -0.628939982335E+02    0.37374E-05   -0.11175E-05  5284   0.198E-02    0.423E-03
DAV:   6    -0.628939979642E+02    0.26935E-06   -0.12887E-06  5032   0.779E-03    0.132E-03
DAV:   7    -0.628939979374E+02    0.26798E-07   -0.11348E-07  5680   0.227E-03    0.923E-04
DAV:   8    -0.628939979375E+02   -0.13119E-09   -0.52909E-08  5200   0.155E-03
  48 F= -.62893998E+02 E0= -.62877573E+02  d E =-.153528E-03
 curvature:  -3.16 expect dE=-0.340E-02 dE for cont linesearch -0.263E-10
 trial: gam= 1.90169 g(F)=  0.104E-02 g(S)=  0.338E-04 ort =-0.217E-06 (trialstep = 0.722E-01)
 search vector abs. value=  0.215E-01
 bond charge predicted
       N       E                     dE             d eps       ncg     rms          rms(c)
DAV:   1    -0.628942086830E+02   -0.21075E-03   -0.62583E-03  4488   0.524E-01    0.523E-02
DAV:   2    -0.628941017818E+02    0.10690E-03   -0.15581E-04  5152   0.802E-02    0.264E-02
DAV:   3    -0.628940668732E+02    0.34909E-04   -0.15659E-04  5104   0.649E-02    0.783E-03
DAV:   4    -0.628940656341E+02    0.12391E-05   -0.68477E-06  5160   0.169E-02    0.311E-03
DAV:   5    -0.628940651856E+02    0.44856E-06   -0.13589E-06  5272   0.711E-03    0.144E-03
DAV:   6    -0.628940651106E+02    0.74958E-07   -0.16515E-07  5460   0.282E-03    0.448E-04
DAV:   7    -0.628940650985E+02    0.12088E-07   -0.12045E-08  3472   0.790E-04    0.329E-04
DAV:   8    -0.628940650980E+02    0.53774E-09   -0.99850E-09  3016   0.693E-04
  49 F= -.62894065E+02 E0= -.62877681E+02  d E =-.671605E-04
 trial-energy change:   -0.000067  1 .order   -0.000067   -0.000078   -0.000056
 step:   0.2234(harm=  0.2621)  dis= 0.00075  next Energy=   -62.894127 (dE=-0.129E-03)
 bond charge predicted
       N       E                     dE             d eps       ncg     rms          rms(c)
DAV:   1    -0.628947672451E+02   -0.70215E-03   -0.27459E-02  4488   0.110E+00    0.110E-01
DAV:   2    -0.628942970342E+02    0.47021E-03   -0.68417E-04  5160   0.168E-01    0.554E-02
DAV:   3    -0.628941440188E+02    0.15302E-03   -0.68892E-04  5108   0.136E-01    0.164E-02
DAV:   4    -0.628941389907E+02    0.50281E-05   -0.30322E-05  5124   0.355E-02    0.650E-03
DAV:   5    -0.628941371750E+02    0.18158E-05   -0.60477E-06  5292   0.150E-02    0.302E-03
DAV:   6    -0.628941369872E+02    0.18772E-06   -0.72393E-07  5452   0.590E-03    0.932E-04
DAV:   7    -0.628941369616E+02    0.25601E-07   -0.58621E-08  5296   0.166E-03    0.706E-04
DAV:   8    -0.628941369594E+02    0.22749E-08   -0.31398E-08  4468   0.121E-03
  50 F= -.62894137E+02 E0= -.62877838E+02  d E =-.139022E-03
 curvature:  -2.52 expect dE=-0.160E-02 dE for cont linesearch -0.342E-05
 ZBRENT: extrapolating
 opt :   0.2660  next Energy=   -62.894141 (dE=-0.143E-03)
 bond charge predicted
       N       E                     dE             d eps       ncg     rms          rms(c)
DAV:   1    -0.628941903266E+02   -0.53365E-04   -0.21703E-03  4488   0.309E-01    0.308E-02
DAV:   2    -0.628941533848E+02    0.36942E-04   -0.54067E-05  5172   0.472E-02    0.156E-02
DAV:   3    -0.628941412364E+02    0.12148E-04   -0.54363E-05  5112   0.382E-02    0.462E-03
DAV:   4    -0.628941407549E+02    0.48145E-06   -0.23972E-06  5168   0.997E-03    0.183E-03
DAV:   5    -0.628941405784E+02    0.17646E-06   -0.47639E-07  5296   0.420E-03    0.848E-04
DAV:   6    -0.628941405365E+02    0.41920E-07   -0.57215E-08  5376   0.166E-03    0.263E-04
DAV:   7    -0.628941405292E+02    0.73321E-08   -0.41058E-09  3136   0.463E-04
  51 F= -.62894141E+02 E0= -.62877866E+02  d E =-.142592E-03
 curvature:  -2.68 expect dE=-0.234E-02 dE for cont linesearch -0.138E-08
 trial: gam= 0.83056 g(F)=  0.712E-03 g(S)=  0.160E-03 ort = 0.333E-05 (trialstep = 0.111E+00)
 search vector abs. value=  0.157E-01
 bond charge predicted
       N       E                     dE             d eps       ncg     rms          rms(c)
DAV:   1    -0.628944655969E+02   -0.32506E-03   -0.10773E-02  4480   0.689E-01    0.682E-02
DAV:   2    -0.628942865537E+02    0.17904E-03   -0.25088E-04  4740   0.987E-02    0.340E-02
DAV:   3    -0.628942261254E+02    0.60428E-04   -0.24557E-04  4972   0.796E-02    0.101E-02
DAV:   4    -0.628942241536E+02    0.19718E-05   -0.10226E-05  5128   0.192E-02    0.393E-03
DAV:   5    -0.628942234333E+02    0.72034E-06   -0.16471E-06  5356   0.778E-03    0.155E-03
DAV:   6    -0.628942233458E+02    0.87504E-07   -0.14158E-07  5172   0.279E-03    0.497E-04
DAV:   7    -0.628942233300E+02    0.15761E-07   -0.17896E-08  3904   0.106E-03    0.357E-04
DAV:   8    -0.628942233355E+02   -0.54808E-08   -0.97380E-09  3016   0.755E-04
  52 F= -.62894223E+02 E0= -.62877990E+02  d E =-.828063E-04
 trial-energy change:   -0.000083  1 .order   -0.000084   -0.000097   -0.000070
 step:   0.4012(harm=  0.4012)  dis= 0.00115  next Energy=   -62.894316 (dE=-0.176E-03)
 bond charge predicted
       N       E                     dE             d eps       ncg     rms          rms(c)
DAV:   1    -0.628959695393E+02   -0.17462E-02   -0.73535E-02  4488   0.180E+00    0.178E-01
DAV:   2    -0.628947468924E+02    0.12226E-02   -0.17097E-03  4720   0.258E-01    0.889E-02
DAV:   3    -0.628943343268E+02    0.41257E-03   -0.16828E-03  4968   0.208E-01    0.266E-02
DAV:   4    -0.628943218534E+02    0.12473E-04   -0.70259E-05  5120   0.504E-02    0.103E-02
DAV:   5    -0.628943173395E+02    0.45140E-05   -0.11417E-05  5372   0.205E-02    0.407E-03
DAV:   6    -0.628943170106E+02    0.32888E-06   -0.97434E-07  5160   0.731E-03    0.130E-03
DAV:   7    -0.628943169832E+02    0.27383E-07   -0.13761E-07  5676   0.281E-03    0.964E-04
DAV:   8    -0.628943170008E+02   -0.17534E-07   -0.60073E-08  5252   0.176E-03    0.205E-04
DAV:   9    -0.628943170043E+02   -0.35031E-08   -0.36582E-09  3096   0.474E-04
  53 F= -.62894317E+02 E0= -.62878190E+02  d E =-.176475E-03
 curvature:  -3.60 expect dE=-0.118E-02 dE for cont linesearch -0.548E-07
 trial: gam= 0.35459 g(F)=  0.297E-03 g(S)=  0.300E-04 ort = 0.155E-04 (trialstep = 0.169E+00)
 search vector abs. value=  0.231E-02
 bond charge predicted
       N       E                     dE             d eps       ncg     rms          rms(c)
DAV:   1    -0.628944421677E+02   -0.12517E-03   -0.42820E-03  4480   0.444E-01    0.410E-02
DAV:   2    -0.628943794506E+02    0.62717E-04   -0.10783E-04  4628   0.683E-02    0.206E-02
DAV:   3    -0.628943581077E+02    0.21343E-04   -0.84617E-05  5032   0.482E-02    0.566E-03
DAV:   4    -0.628943573840E+02    0.72369E-06   -0.32143E-06  5112   0.118E-02    0.278E-03
DAV:   5    -0.628943571126E+02    0.27143E-06   -0.68778E-07  5400   0.506E-03    0.101E-03
DAV:   6    -0.628943570605E+02    0.52044E-07   -0.81646E-08  5356   0.203E-03    0.326E-04
DAV:   7    -0.628943570521E+02    0.84672E-08   -0.10731E-08  3264   0.785E-04
  54 F= -.62894357E+02 E0= -.62878281E+02  d E =-.400478E-04
 trial-energy change:   -0.000040  1 .order   -0.000040   -0.000056   -0.000023
 step:   0.2742(harm=  0.2865)  dis= 0.00066  next Energy=   -62.894364 (dE=-0.473E-04)
 bond charge predicted
       N       E                     dE             d eps       ncg     rms          rms(c)
DAV:   1    -0.628943973195E+02   -0.40259E-04   -0.16563E-03  4480   0.277E-01    0.255E-02
DAV:   2    -0.628943731635E+02    0.24156E-04   -0.41701E-05  4640   0.425E-02    0.128E-02
DAV:   3    -0.628943649183E+02    0.82452E-05   -0.32749E-05  5024   0.300E-02    0.352E-03
DAV:   4    -0.628943646056E+02    0.31266E-06   -0.12486E-06  5104   0.735E-03    0.173E-03
DAV:   5    -0.628943644861E+02    0.11954E-06   -0.26721E-07  5380   0.315E-03    0.632E-04
DAV:   6    -0.628943644560E+02    0.30116E-07   -0.30520E-08  4200   0.127E-03    0.195E-04
DAV:   7    -0.628943644510E+02    0.50047E-08   -0.47660E-09  3056   0.548E-04
  55 F= -.62894364E+02 E0= -.62878320E+02  d E =-.474467E-04
 curvature:  -0.99 expect dE=-0.209E-03 dE for cont linesearch -0.619E-07
 trial: gam= 0.63758 g(F)=  0.201E-03 g(S)=  0.109E-04 ort = 0.121E-04 (trialstep = 0.190E+00)
 search vector abs. value=  0.117E-02
 bond charge predicted
       N       E                     dE             d eps       ncg     rms          rms(c)
DAV:   1    -0.628944328296E+02   -0.68374E-04   -0.27195E-03  4480   0.361E-01    0.290E-02
DAV:   2    -0.628944022626E+02    0.30567E-04   -0.57335E-05  5412   0.515E-02    0.151E-02
DAV:   3    -0.628943906838E+02    0.11579E-04   -0.43218E-05  4964   0.346E-02    0.377E-03
DAV:   4    -0.628943902370E+02    0.44682E-06   -0.17667E-06  5240   0.941E-03    0.193E-03
DAV:   5    -0.628943900798E+02    0.15721E-06   -0.43923E-07  6072   0.409E-03    0.815E-04
DAV:   6    -0.628943900406E+02    0.39202E-07   -0.47631E-08  4848   0.151E-03    0.310E-04
DAV:   7    -0.628943900259E+02    0.14646E-07   -0.11438E-08  3004   0.829E-04    0.182E-04
DAV:   8    -0.628943900300E+02   -0.41052E-08   -0.25745E-09  2916   0.433E-04
  56 F= -.62894390E+02 E0= -.62878352E+02  d E =-.255791E-04
 trial-energy change:   -0.000026  1 .order   -0.000026   -0.000042   -0.000009
 step:   0.2453(harm=  0.2453)  dis= 0.00034  next Energy=   -62.894391 (dE=-0.269E-04)
 bond charge predicted
       N       E                     dE             d eps       ncg     rms          rms(c)
DAV:   1    -0.628943950553E+02   -0.50294E-05   -0.22995E-04  4480   0.105E-01    0.843E-03
DAV:   2    -0.628943925144E+02    0.25409E-05   -0.48445E-06  5424   0.150E-02    0.439E-03
DAV:   3    -0.628943915199E+02    0.99457E-06   -0.36509E-06  4980   0.101E-02    0.109E-03
DAV:   4    -0.628943914643E+02    0.55580E-07   -0.14869E-07  5284   0.273E-03    0.562E-04
DAV:   5    -0.628943914390E+02    0.25274E-07   -0.36151E-08  4932   0.119E-03    0.232E-04
DAV:   6    -0.628943914295E+02    0.94524E-08   -0.32649E-09  2856   0.431E-04
  57 F= -.62894391E+02 E0= -.62878356E+02  d E =-.269786E-04
 curvature:  -0.65 expect dE=-0.946E-04 dE for cont linesearch -0.553E-09
 trial: gam= 0.72471 g(F)=  0.135E-03 g(S)=  0.960E-05 ort = 0.995E-06 (trialstep = 0.201E+00)
 search vector abs. value=  0.760E-03
 bond charge predicted
       N       E                     dE             d eps       ncg     rms          rms(c)
DAV:   1    -0.628944499279E+02   -0.58489E-04   -0.19247E-03  4480   0.300E-01    0.258E-02
DAV:   2    -0.628944247616E+02    0.25166E-04   -0.39779E-05  5376   0.402E-02    0.130E-02
DAV:   3    -0.628944161264E+02    0.86353E-05   -0.34644E-05  5068   0.303E-02    0.425E-03
DAV:   4    -0.628944157080E+02    0.41838E-06   -0.22300E-06  5176   0.854E-03    0.159E-03
DAV:   5    -0.628944155771E+02    0.13085E-06   -0.31433E-07  5304   0.337E-03    0.647E-04
DAV:   6    -0.628944155527E+02    0.24457E-07   -0.28492E-08  4756   0.121E-03    0.202E-04
DAV:   7    -0.628944155500E+02    0.26473E-08   -0.33467E-09  3028   0.488E-04
  58 F= -.62894416E+02 E0= -.62878363E+02  d E =-.241205E-04
 trial-energy change:   -0.000024  1 .order   -0.000024   -0.000029   -0.000019
 step:   0.4695(harm=  0.5463)  dis= 0.00051  next Energy=   -62.894428 (dE=-0.370E-04)
 bond charge predicted
       N       E                     dE             d eps       ncg     rms          rms(c)
DAV:   1    -0.628944922068E+02   -0.76654E-04   -0.34273E-03  4480   0.401E-01    0.345E-02
DAV:   2    -0.628944473117E+02    0.44895E-04   -0.70755E-05  5376   0.537E-02    0.174E-02
DAV:   3    -0.628944319360E+02    0.15376E-04   -0.61625E-05  5068   0.404E-02    0.567E-03
DAV:   4    -0.628944312300E+02    0.70602E-06   -0.39595E-06  5184   0.114E-02    0.212E-03
DAV:   5    -0.628944310048E+02    0.22516E-06   -0.55770E-07  5304   0.449E-03    0.863E-04
DAV:   6    -0.628944309706E+02    0.34197E-07   -0.51967E-08  5316   0.162E-03    0.277E-04
DAV:   7    -0.628944309676E+02    0.30100E-08   -0.50796E-09  3084   0.592E-04
  59 F= -.62894431E+02 E0= -.62878356E+02  d E =-.395381E-04
 curvature:  -1.35 expect dE=-0.192E-03 dE for cont linesearch -0.768E-06
 trial: gam= 0.79277 g(F)=  0.127E-03 g(S)=  0.151E-04 ort = 0.208E-04 (trialstep = 0.255E+00)
 search vector abs. value=  0.652E-03
 bond charge predicted
       N       E                     dE             d eps       ncg     rms          rms(c)
DAV:   1    -0.628944988333E+02   -0.67863E-04   -0.30900E-03  4480   0.393E-01    0.322E-02
DAV:   2    -0.628944642988E+02    0.34535E-04   -0.68719E-05  5544   0.579E-02    0.164E-02
DAV:   3    -0.628944523748E+02    0.11924E-04   -0.52062E-05  5180   0.390E-02    0.410E-03
DAV:   4    -0.628944518524E+02    0.52236E-06   -0.21982E-06  5332   0.109E-02    0.207E-03
DAV:   5    -0.628944516857E+02    0.16671E-06   -0.44099E-07  5300   0.415E-03    0.958E-04
DAV:   6    -0.628944516303E+02    0.55390E-07   -0.60547E-08  5092   0.179E-03    0.288E-04
DAV:   7    -0.628944516265E+02    0.38585E-08   -0.63666E-09  3144   0.552E-04
  60 F= -.62894452E+02 E0= -.62878408E+02  d E =-.206588E-04
 trial-energy change:   -0.000021  1 .order   -0.000021   -0.000040   -0.000001
 step:   0.2595(harm=  0.2596)  dis= 0.00051  next Energy=   -62.894452 (dE=-0.207E-04)
 bond charge predicted
       N       E                     dE             d eps       ncg     rms          rms(c)
DAV:   1    -0.628944516483E+02   -0.17978E-07   -0.10394E-06  4736   0.725E-03    0.595E-04
DAV:   2    -0.628944516433E+02    0.50297E-08   -0.22674E-08  4664   0.106E-03
  61 F= -.62894452E+02 E0= -.62878409E+02  d E =-.206757E-04
 curvature:  -0.53 expect dE=-0.491E-04 dE for cont linesearch -0.123E-07
 trial: gam= 0.80650 g(F)=  0.612E-04 g(S)=  0.307E-04 ort = 0.387E-05 (trialstep = 0.256E+00)
 search vector abs. value=  0.522E-03
 bond charge predicted
       N       E                     dE             d eps       ncg     rms          rms(c)
DAV:   1    -0.628945006672E+02   -0.49019E-04   -0.20347E-03  4480   0.319E-01    0.257E-02
DAV:   2    -0.628944768662E+02    0.23801E-04   -0.38055E-05  5288   0.406E-02    0.132E-02
DAV:   3    -0.628944682034E+02    0.86628E-05   -0.35921E-05  5104   0.310E-02    0.378E-03
DAV:   4    -0.628944678516E+02    0.35181E-06   -0.15787E-06  5156   0.788E-03    0.155E-03
DAV:   5    -0.628944676839E+02    0.16763E-06   -0.26594E-07  5300   0.317E-03    0.590E-04
DAV:   6    -0.628944676465E+02    0.37460E-07   -0.15872E-08  3684   0.997E-04    0.216E-04
DAV:   7    -0.628944676272E+02    0.19294E-07   -0.45562E-09  3076   0.599E-04    0.104E-04
DAV:   8    -0.628944676293E+02   -0.21291E-08   -0.92868E-10  2948   0.261E-04
  62 F= -.62894468E+02 E0= -.62878415E+02  d E =-.159860E-04
 trial-energy change:   -0.000016  1 .order   -0.000017   -0.000024   -0.000009
 step:   0.4167(harm=  0.4167)  dis= 0.00040  next Energy=   -62.894471 (dE=-0.198E-04)
 bond charge predicted
       N       E                     dE             d eps       ncg     rms          rms(c)
DAV:   1    -0.628944837095E+02   -0.16082E-04   -0.80876E-04  4488   0.201E-01    0.162E-02
DAV:   2    -0.628944743006E+02    0.94089E-05   -0.15092E-05  5288   0.256E-02    0.833E-03
DAV:   3    -0.628944708060E+02    0.34946E-05   -0.14227E-05  5100   0.195E-02    0.238E-03
DAV:   4    -0.628944706446E+02    0.16136E-06   -0.62740E-07  5160   0.497E-03    0.972E-04
DAV:   5    -0.628944705591E+02    0.85540E-07   -0.10495E-07  5288   0.199E-03    0.371E-04
DAV:   6    -0.628944705371E+02    0.21988E-07   -0.59223E-09  3188   0.621E-04    0.136E-04
DAV:   7    -0.628944705249E+02    0.12151E-07   -0.19843E-09  2984   0.388E-04    0.653E-05
DAV:   8    -0.628944705263E+02   -0.14199E-08   -0.38866E-10  2844   0.168E-04
  63 F= -.62894471E+02 E0= -.62878412E+02  d E =-.188831E-04
 curvature:  -1.15 expect dE=-0.831E-04 dE for cont linesearch -0.111E-07
 trial: gam= 0.57314 g(F)=  0.633E-04 g(S)=  0.931E-05 ort = 0.225E-05 (trialstep = 0.288E+00)
 search vector abs. value=  0.247E-03
 bond charge predicted
       N       E                     dE             d eps       ncg     rms          rms(c)
DAV:   1    -0.628945021839E+02   -0.31659E-04   -0.14966E-03  4480   0.277E-01    0.223E-02
DAV:   2    -0.628944839035E+02    0.18280E-04   -0.44962E-05  6032   0.465E-02    0.111E-02
DAV:   3    -0.628944791111E+02    0.47924E-05   -0.24570E-05  5104   0.269E-02    0.353E-03
DAV:   4    -0.628944786834E+02    0.42773E-06   -0.18654E-06  5284   0.854E-03    0.177E-03
DAV:   5    -0.628944785126E+02    0.17082E-06   -0.43472E-07  5216   0.383E-03    0.585E-04
DAV:   6    -0.628944784883E+02    0.24261E-07   -0.28603E-08  4760   0.117E-03    0.267E-04
DAV:   7    -0.628944784724E+02    0.15915E-07   -0.60446E-09  2996   0.624E-04    0.937E-05
DAV:   8    -0.628944784728E+02   -0.43769E-09   -0.11484E-09  2880   0.269E-04
  64 F= -.62894478E+02 E0= -.62878407E+02  d E =-.794648E-05
 trial-energy change:   -0.000008  1 .order   -0.000008   -0.000021    0.000005
 step:   0.2305(harm=  0.2315)  dis= 0.00020  next Energy=   -62.894479 (dE=-0.846E-05)
 bond charge predicted
       N       E                     dE             d eps       ncg     rms          rms(c)
DAV:   1    -0.628944799009E+02   -0.14285E-05   -0.59543E-05  4504   0.552E-02    0.445E-03
DAV:   2    -0.628944791506E+02    0.75022E-06   -0.17912E-06  6048   0.927E-03    0.221E-03
DAV:   3    -0.628944789838E+02    0.16679E-06   -0.97522E-07  5072   0.535E-03    0.704E-04
DAV:   4    -0.628944789868E+02   -0.30075E-08   -0.73641E-08  5232   0.170E-03
  65 F= -.62894479E+02 E0= -.62878410E+02  d E =-.846050E-05
 curvature:  -0.39 expect dE=-0.214E-04 dE for cont linesearch -0.489E-08
 trial: gam= 0.78807 g(F)=  0.397E-04 g(S)=  0.156E-04 ort =-0.177E-05 (trialstep = 0.276E+00)
 search vector abs. value=  0.206E-03
 bond charge predicted
       N       E                     dE             d eps       ncg     rms          rms(c)
DAV:   1    -0.628945034082E+02   -0.24424E-04   -0.10388E-03  4480   0.230E-01    0.170E-02
DAV:   2    -0.628944936687E+02    0.97395E-05   -0.22493E-05  5284   0.317E-02    0.874E-03
DAV:   3    -0.628944898000E+02    0.38687E-05   -0.12444E-05  5060   0.187E-02    0.182E-03
DAV:   4    -0.628944896826E+02    0.11746E-06   -0.36977E-07  5584   0.435E-03    0.101E-03
DAV:   5    -0.628944896192E+02    0.63345E-07   -0.69634E-08  5388   0.169E-03    0.379E-04
DAV:   6    -0.628944896025E+02    0.16750E-07   -0.83571E-09  3116   0.708E-04    0.141E-04
DAV:   7    -0.628944896002E+02    0.22737E-08   -0.21098E-09  2984   0.375E-04
  66 F= -.62894490E+02 E0= -.62878444E+02  d E =-.106133E-04
 trial-energy change:   -0.000011  1 .order   -0.000010   -0.000015   -0.000006
 step:   0.4011(harm=  0.4438)  dis= 0.00033  next Energy=   -62.894491 (dE=-0.119E-04)
 bond charge predicted
       N       E                     dE             d eps       ncg     rms          rms(c)
DAV:   1    -0.628944939712E+02   -0.43687E-05   -0.21017E-04  4480   0.104E-01    0.764E-03
DAV:   2    -0.628944920359E+02    0.19353E-05   -0.45483E-06  5280   0.143E-02    0.392E-03
DAV:   3    -0.628944912433E+02    0.79258E-06   -0.25108E-06  5076   0.842E-03    0.818E-04
DAV:   4    -0.628944912054E+02    0.37859E-07   -0.74782E-08  5600   0.196E-03    0.455E-04
DAV:   5    -0.628944911840E+02    0.21392E-07   -0.12210E-08  3168   0.770E-04    0.165E-04
DAV:   6    -0.628944911760E+02    0.80172E-08   -0.29391E-09  2932   0.432E-04
  67 F= -.62894491E+02 E0= -.62878456E+02  d E =-.121892E-04
 curvature:  -0.79 expect dE=-0.404E-04 dE for cont linesearch -0.764E-07
 trial: gam= 0.83704 g(F)=  0.345E-04 g(S)=  0.165E-04 ort = 0.445E-05 (trialstep = 0.301E+00)
 search vector abs. value=  0.203E-03
 bond charge predicted
       N       E                     dE             d eps       ncg     rms          rms(c)
DAV:   1    -0.628945205910E+02   -0.29407E-04   -0.10649E-03  4480   0.230E-01    0.186E-02
DAV:   2    -0.628945081906E+02    0.12400E-04   -0.26216E-05  5200   0.350E-02    0.957E-03
DAV:   3    -0.628945040016E+02    0.41891E-05   -0.18189E-05  5172   0.228E-02    0.282E-03
DAV:   4    -0.628945037833E+02    0.21828E-06   -0.93562E-07  5400   0.652E-03    0.126E-03
DAV:   5    -0.628945037278E+02    0.55513E-07   -0.19339E-07  5328   0.277E-03    0.499E-04
DAV:   6    -0.628945037142E+02    0.13554E-07   -0.13916E-08  3328   0.901E-04    0.205E-04
DAV:   7    -0.628945037101E+02    0.41041E-08   -0.52770E-09  2968   0.593E-04
  68 F= -.62894504E+02 E0= -.62878481E+02  d E =-.125341E-04
 trial-energy change:   -0.000013  1 .order   -0.000013   -0.000017   -0.000009
 step:   0.7734(harm=  0.6484)  dis= 0.00040  next Energy=   -62.894510 (dE=-0.189E-04)
 bond charge predicted
       N       E                     dE             d eps       ncg     rms          rms(c)
DAV:   1    -0.628945494025E+02   -0.45688E-04   -0.26129E-03  4480   0.361E-01    0.291E-02
DAV:   2    -0.628945187440E+02    0.30659E-04   -0.64335E-05  5200   0.549E-02    0.150E-02
DAV:   3    -0.628945083941E+02    0.10350E-04   -0.44645E-05  5164   0.358E-02    0.443E-03
DAV:   4    -0.628945079007E+02    0.49345E-06   -0.23030E-06  5396   0.102E-02    0.197E-03
DAV:   5    -0.628945077672E+02    0.13346E-06   -0.47615E-07  5336   0.434E-03    0.782E-04
DAV:   6    -0.628945077436E+02    0.23572E-07   -0.38350E-08  5264   0.141E-03    0.327E-04
DAV:   7    -0.628945077373E+02    0.63646E-08   -0.71190E-09  3080   0.705E-04
  69 F= -.62894508E+02 E0= -.62878505E+02  d E =-.165613E-04
 curvature:  -1.04 expect dE=-0.102E-03 dE for cont linesearch -0.575E-06
 ZBRENT: interpolating
 opt :   0.6483  next Energy=   -62.894508 (dE=-0.172E-04)
 bond charge predicted
       N       E                     dE             d eps       ncg     rms          rms(c)
DAV:   1    -0.628945113414E+02   -0.35977E-05   -0.18361E-04  4480   0.956E-02    0.771E-03
DAV:   2    -0.628945090540E+02    0.22873E-05   -0.45156E-06  5208   0.146E-02    0.397E-03
DAV:   3    -0.628945082908E+02    0.76328E-06   -0.31299E-06  5120   0.947E-03    0.118E-03
DAV:   4    -0.628945082813E+02    0.94437E-08   -0.16283E-07  5380   0.272E-03    0.526E-04
DAV:   5    -0.628945082738E+02    0.74976E-08   -0.32903E-08  4684   0.115E-03
  70 F= -.62894508E+02 E0= -.62878500E+02  d E =-.170978E-04
 curvature:  -1.20 expect dE=-0.780E-04 dE for cont linesearch -0.451E-09
 trial: gam= 1.42570 g(F)=  0.540E-04 g(S)=  0.110E-04 ort =-0.276E-06 (trialstep = 0.158E+00)
 search vector abs. value=  0.476E-03
 bond charge predicted
       N       E                     dE             d eps       ncg     rms          rms(c)
DAV:   1    -0.628945280242E+02   -0.19743E-04   -0.68414E-04  4480   0.183E-01    0.156E-02
DAV:   2    -0.628945191671E+02    0.88571E-05   -0.18133E-05  5200   0.279E-02    0.781E-03
DAV:   3    -0.628945163622E+02    0.28049E-05   -0.12596E-05  5096   0.187E-02    0.254E-03
DAV:   4    -0.628945161891E+02    0.17303E-06   -0.70047E-07  5148   0.507E-03    0.109E-03
DAV:   5    -0.628945161362E+02    0.52974E-07   -0.12223E-07  5280   0.206E-03    0.384E-04
DAV:   6    -0.628945161218E+02    0.14395E-07   -0.74673E-09  3132   0.651E-04    0.111E-04
DAV:   7    -0.628945161180E+02    0.37423E-08   -0.17671E-09  2936   0.367E-04
  71 F= -.62894516E+02 E0= -.62878508E+02  d E =-.784421E-05
 trial-energy change:   -0.000008  1 .order   -0.000008   -0.000010   -0.000005
 step:   0.2704(harm=  0.3155)  dis= 0.00025  next Energy=   -62.894518 (dE=-0.973E-05)
 bond charge predicted
       N       E                     dE             d eps       ncg     rms          rms(c)
DAV:   1    -0.628945246218E+02   -0.85001E-05   -0.34806E-04  4480   0.130E-01    0.111E-02
DAV:   2    -0.628945201403E+02    0.44815E-05   -0.92436E-06  5180   0.199E-02    0.556E-03
DAV:   3    -0.628945187123E+02    0.14280E-05   -0.64095E-06  5108   0.134E-02    0.181E-03
DAV:   4    -0.628945186149E+02    0.97396E-07   -0.35969E-07  5192   0.363E-03    0.774E-04
DAV:   5    -0.628945185853E+02    0.29595E-07   -0.63135E-08  5276   0.148E-03    0.276E-04
DAV:   6    -0.628945185755E+02    0.97828E-08   -0.39286E-09  2972   0.474E-04
  72 F= -.62894519E+02 E0= -.62878510E+02  d E =-.103017E-04
 curvature:  -1.07 expect dE=-0.790E-04 dE for cont linesearch -0.186E-06
 trial: gam= 0.95051 g(F)=  0.530E-04 g(S)=  0.211E-04 ort = 0.912E-05 (trialstep = 0.165E+00)
 search vector abs. value=  0.521E-03
 bond charge predicted
       N       E                     dE             d eps       ncg     rms          rms(c)
DAV:   1    -0.628945419704E+02   -0.23385E-04   -0.69586E-04  4480   0.184E-01    0.158E-02
DAV:   2    -0.628945331625E+02    0.88079E-05   -0.18526E-05  5056   0.287E-02    0.808E-03
DAV:   3    -0.628945299800E+02    0.31825E-05   -0.12671E-05  5060   0.187E-02    0.212E-03
DAV:   4    -0.628945298344E+02    0.14562E-06   -0.43417E-07  5440   0.456E-03    0.974E-04
DAV:   5    -0.628945297681E+02    0.66265E-07   -0.94942E-08  5308   0.195E-03    0.415E-04
DAV:   6    -0.628945297456E+02    0.22523E-07   -0.83369E-09  3060   0.722E-04    0.131E-04
DAV:   7    -0.628945297396E+02    0.60493E-08   -0.19126E-09  2904   0.390E-04
  73 F= -.62894530E+02 E0= -.62878531E+02  d E =-.111640E-04
 trial-energy change:   -0.000011  1 .order   -0.000011   -0.000014   -0.000009
 step:   0.4811(harm=  0.4811)  dis= 0.00044  next Energy=   -62.894538 (dE=-0.199E-04)
 bond charge predicted
[...]
  81 F= -.62894584E+02 E0= -.62878649E+02  d E =-.145901E-04
 curvature:   3.41 expect dE= 0.241E-03 dE for cont linesearch  0.329E-05
 ZBRENT: bracketing found
 ZBRENT: interpolating
 opt :   0.3715  next Energy=   -62.894586 (dE=-0.165E-04)
 bond charge predicted
       N       E                     dE             d eps       ncg     rms          rms(c)
DAV:   1    -0.628946075221E+02   -0.23848E-04   -0.11507E-03  4480   0.231E-01    0.206E-02
DAV:   2    -0.628945917305E+02    0.15792E-04   -0.26263E-05  5108   0.336E-02    0.106E-02
DAV:   3    -0.628945859037E+02    0.58268E-05   -0.22011E-05  5028   0.244E-02    0.324E-03
DAV:   4    -0.628945858225E+02    0.81149E-07   -0.11117E-06  5060   0.650E-03    0.122E-03
DAV:   5    -0.628945857725E+02    0.50049E-07   -0.15669E-07  5380   0.251E-03    0.423E-04
DAV:   6    -0.628945857784E+02   -0.59013E-08   -0.17492E-08  3428   0.945E-04
  82 F= -.62894586E+02 E0= -.62878647E+02  d E =-.166946E-04
 curvature:  -0.91 expect dE=-0.272E-04 dE for cont linesearch -0.680E-08
 trial: gam= 0.37031 g(F)=  0.275E-04 g(S)=  0.259E-05 ort =-0.287E-05 (trialstep = 0.207E+00)
 search vector abs. value=  0.178E-03
 bond charge predicted
       N       E                     dE             d eps       ncg     rms          rms(c)
DAV:   1    -0.628945954557E+02   -0.96832E-05   -0.47771E-04  4480   0.156E-01    0.113E-02
DAV:   2    -0.628945914105E+02    0.40452E-05   -0.10113E-05  5504   0.217E-02    0.590E-03
DAV:   3    -0.628945897460E+02    0.16645E-05   -0.52874E-06  5144   0.123E-02    0.138E-03
DAV:   4    -0.628945896623E+02    0.83707E-07   -0.20092E-07  5972   0.314E-03    0.651E-04
DAV:   5    -0.628945896389E+02    0.23448E-07   -0.39581E-08  5112   0.129E-03    0.312E-04
DAV:   6    -0.628945896276E+02    0.11210E-07   -0.53934E-09  3028   0.575E-04    0.106E-04
DAV:   7    -0.628945896259E+02    0.17706E-08   -0.12795E-09  2908   0.316E-04
  83 F= -.62894590E+02 E0= -.62878649E+02  d E =-.384749E-05
 trial-energy change:   -0.000004  1 .order   -0.000004   -0.000006   -0.000001
 step:   0.2533(harm=  0.2664)  dis= 0.00015  next Energy=   -62.894590 (dE=-0.400E-05)
 bond charge predicted
       N       E                     dE             d eps       ncg     rms          rms(c)
DAV:   1    -0.628945901104E+02   -0.48271E-06   -0.24069E-05  4484   0.350E-02    0.252E-03
DAV:   2    -0.628945899265E+02    0.18383E-06   -0.50942E-07  5544   0.488E-03    0.132E-03
DAV:   3    -0.628945898464E+02    0.80104E-07   -0.26570E-07  5180   0.275E-03    0.307E-04
DAV:   4    -0.628945898369E+02    0.95638E-08   -0.87065E-09  3176   0.703E-04
  84 F= -.62894590E+02 E0= -.62878649E+02  d E =-.405847E-05
 curvature:  -0.78 expect dE=-0.111E-04 dE for cont linesearch -0.111E-07
 trial: gam= 0.42181 g(F)=  0.979E-05 g(S)=  0.448E-05 ort = 0.159E-05 (trialstep = 0.216E+00)
 search vector abs. value=  0.474E-04
 bond charge predicted
       N       E                     dE             d eps       ncg     rms          rms(c)
DAV:   1    -0.628945942342E+02   -0.43878E-05   -0.15782E-04  4480   0.907E-02    0.657E-03
DAV:   2    -0.628945927272E+02    0.15069E-05   -0.34789E-06  5440   0.132E-02    0.341E-03
DAV:   3    -0.628945922674E+02    0.45987E-06   -0.24885E-06  5280   0.833E-03    0.111E-03
DAV:   4    -0.628945922154E+02    0.51938E-07   -0.17957E-07  5376   0.261E-03    0.572E-04
DAV:   5    -0.628945921923E+02    0.23069E-07   -0.41778E-08  5220   0.116E-03    0.190E-04
DAV:   6    -0.628945921874E+02    0.49863E-08   -0.32730E-09  3036   0.414E-04
  85 F= -.62894592E+02 E0= -.62878652E+02  d E =-.235050E-05
 trial-energy change:   -0.000002  1 .order   -0.000002   -0.000003   -0.000001
 step:   0.3886(harm=  0.3886)  dis= 0.00012  next Energy=   -62.894593 (dE=-0.290E-05)
 bond charge predicted
       N       E                     dE             d eps       ncg     rms          rms(c)
DAV:   1    -0.628945941049E+02   -0.19126E-05   -0.10081E-04  4480   0.725E-02    0.526E-03
DAV:   2    -0.628945931562E+02    0.94876E-06   -0.22256E-06  5440   0.105E-02    0.273E-03
DAV:   3    -0.628945928631E+02    0.29308E-06   -0.15927E-06  5284   0.666E-03    0.884E-04
DAV:   4    -0.628945928273E+02    0.35826E-07   -0.11389E-07  5372   0.208E-03    0.453E-04
DAV:   5    -0.628945928105E+02    0.16741E-07   -0.24664E-08  4128   0.926E-04    0.146E-04
DAV:   6    -0.628945928055E+02    0.49918E-08   -0.24740E-09  2972   0.373E-04
  86 F= -.62894593E+02 E0= -.62878654E+02  d E =-.296867E-05
 curvature:  -0.62 expect dE=-0.107E-04 dE for cont linesearch -0.432E-09
 trial: gam= 1.26974 g(F)=  0.147E-04 g(S)=  0.266E-05 ort = 0.182E-06 (trialstep = 0.126E+00)
 search vector abs. value=  0.942E-04
 bond charge predicted
       N       E                     dE             d eps       ncg     rms          rms(c)
DAV:   1    -0.628945955518E+02   -0.27413E-05   -0.10605E-04  4480   0.753E-02    0.461E-03
DAV:   2    -0.628945948609E+02    0.69085E-06   -0.15881E-06  5524   0.863E-03    0.251E-03
DAV:   3    -0.628945945283E+02    0.33262E-06   -0.10314E-06  5212   0.531E-03    0.543E-04
DAV:   4    -0.628945945054E+02    0.22913E-07   -0.25219E-08  4348   0.117E-03    0.286E-04
DAV:   5    -0.628945944894E+02    0.16014E-07   -0.63739E-09  3084   0.565E-04    0.101E-04
DAV:   6    -0.628945944836E+02    0.57873E-08   -0.11645E-09  2872   0.278E-04
  87 F= -.62894594E+02 E0= -.62878660E+02  d E =-.167808E-05
 trial-energy change:   -0.000002  1 .order   -0.000002   -0.000002   -0.000001
 step:   0.2871(harm=  0.2871)  dis= 0.00018  next Energy=   -62.894595 (dE=-0.253E-05)
 bond charge predicted
       N       E                     dE             d eps       ncg     rms          rms(c)
DAV:   1    -0.628945969271E+02   -0.24377E-05   -0.17342E-04  4480   0.962E-02    0.590E-03
DAV:   2    -0.628945957962E+02    0.11308E-05   -0.25981E-06  5548   0.110E-02    0.321E-03
DAV:   3    -0.628945952683E+02    0.52790E-06   -0.16815E-06  5212   0.678E-03    0.694E-04
DAV:   4    -0.628945952376E+02    0.30723E-07   -0.43494E-08  5344   0.150E-03    0.364E-04
DAV:   5    -0.628945952174E+02    0.20222E-07   -0.79722E-09  3188   0.633E-04    0.137E-04
DAV:   6    -0.628945952085E+02    0.88694E-08   -0.16158E-09  2952   0.329E-04
  88 F= -.62894595E+02 E0= -.62878665E+02  d E =-.240301E-05
 curvature:  -0.77 expect dE=-0.620E-05 dE for cont linesearch -0.126E-12
 trial: gam= 0.46136 g(F)=  0.522E-05 g(S)=  0.285E-05 ort = 0.393E-08 (trialstep = 0.158E+00)
 search vector abs. value=  0.281E-04
 bond charge predicted
       N       E                     dE             d eps       ncg     rms          rms(c)
DAV:   1    -0.628945969078E+02   -0.16904E-05   -0.52354E-05  4480   0.526E-02    0.353E-03
DAV:   2    -0.628945964754E+02    0.43236E-06   -0.98506E-07  5356   0.672E-03    0.181E-03
DAV:   3    -0.628945963179E+02    0.15747E-06   -0.69450E-07  5252   0.442E-03    0.569E-04
DAV:   4    -0.628945962988E+02    0.19089E-07   -0.46473E-08  5164   0.134E-03    0.239E-04
DAV:   5    -0.628945962895E+02    0.93048E-08   -0.70357E-09  3052   0.534E-04
  89 F= -.62894596E+02 E0= -.62878666E+02  d E =-.108100E-05
 trial-energy change:   -0.000001  1 .order   -0.000001   -0.000001   -0.000001
 step:   0.5206(harm=  0.5206)  dis= 0.00018  next Energy=   -62.894597 (dE=-0.210E-05)
 bond charge predicted
       N       E                     dE             d eps       ncg     rms          rms(c)
DAV:   1    -0.628946005181E+02   -0.42192E-05   -0.27489E-04  4480   0.121E-01    0.807E-03
DAV:   2    -0.628945981783E+02    0.23398E-05   -0.51549E-06  5360   0.154E-02    0.414E-03
DAV:   3    -0.628945973990E+02    0.77926E-06   -0.36410E-06  5240   0.101E-02    0.131E-03
DAV:   4    -0.628945973345E+02    0.64496E-07   -0.24470E-07  5268   0.306E-03    0.550E-04
DAV:   5    -0.628945973059E+02    0.28648E-07   -0.40858E-08  5204   0.122E-03    0.203E-04
DAV:   6    -0.628945972969E+02    0.90320E-08   -0.22267E-09  3040   0.357E-04
  90 F= -.62894597E+02 E0= -.62878666E+02  d E =-.208833E-05
 curvature:  -0.91 expect dE=-0.589E-05 dE for cont linesearch -0.385E-12
 trial: gam= 0.78576 g(F)=  0.574E-05 g(S)=  0.754E-06 ort =-0.345E-08 (trialstep = 0.231E+00)
 search vector abs. value=  0.239E-04
 bond charge predicted
       N       E                     dE             d eps       ncg     rms          rms(c)
DAV:   1    -0.628945993709E+02   -0.20650E-05   -0.94000E-05  4488   0.705E-02    0.494E-03
DAV:   2    -0.628945985154E+02    0.85554E-06   -0.22934E-06  5460   0.108E-02    0.263E-03
DAV:   3    -0.628945982411E+02    0.27429E-06   -0.14124E-06  5312   0.660E-03    0.806E-04
DAV:   4    -0.628945982116E+02    0.29461E-07   -0.91095E-08  5304   0.213E-03    0.411E-04
DAV:   5    -0.628945981994E+02    0.12174E-07   -0.17842E-08  3304   0.859E-04    0.136E-04
DAV:   6    -0.628945981942E+02    0.52050E-08   -0.22471E-09  2896   0.357E-04
  91 F= -.62894598E+02 E0= -.62878671E+02  d E =-.897351E-06
 trial-energy change:   -0.000001  1 .order   -0.000001   -0.000001   -0.000000
 step:   0.2767(harm=  0.2767)  dis= 0.00006  next Energy=   -62.894598 (dE=-0.898E-06)
 bond charge predicted
       N       E                     dE             d eps       ncg     rms          rms(c)
DAV:   1    -0.628945982675E+02   -0.68037E-07   -0.37405E-06  4520   0.141E-02    0.988E-04
DAV:   2    -0.628945982408E+02    0.26699E-07   -0.92675E-08  5460   0.218E-03    0.525E-04
DAV:   3    -0.628945982294E+02    0.11383E-07   -0.56807E-08  5228   0.132E-03    0.159E-04
DAV:   4    -0.628945982261E+02    0.32680E-08   -0.33983E-09  2856   0.432E-04
  92 F= -.62894598E+02 E0= -.62878672E+02  d E =-.929243E-06
 curvature:  -0.51 expect dE=-0.106E-05 dE for cont linesearch -0.606E-10
 trial: gam= 0.32301 g(F)=  0.143E-05 g(S)=  0.648E-06 ort = 0.533E-07 (trialstep = 0.240E+00)
 search vector abs. value=  0.461E-05
 bond charge predicted
       N       E                     dE             d eps       ncg     rms          rms(c)
DAV:   1    -0.628945988041E+02   -0.57472E-06   -0.21179E-05  4504   0.331E-02    0.253E-03
DAV:   2    -0.628945986193E+02    0.18480E-06   -0.58582E-07  5996   0.534E-03    0.126E-03
DAV:   3    -0.628945985639E+02    0.55352E-07   -0.27517E-07  5144   0.289E-03    0.408E-04
DAV:   4    -0.628945985541E+02    0.98030E-08   -0.16146E-08  3128   0.897E-04
  93 F= -.62894599E+02 E0= -.62878672E+02  d E =-.328034E-06
 trial-energy change:   -0.000000  1 .order   -0.000000   -0.000001   -0.000000
 step:   0.3029(harm=  0.3029)  dis= 0.00004  next Energy=   -62.894599 (dE=-0.318E-06)
 bond charge predicted
       N       E                     dE             d eps       ncg     rms          rms(c)
DAV:   1    -0.628945985818E+02   -0.17831E-07   -0.14312E-06  4520   0.862E-03    0.675E-04
DAV:   2    -0.628945985725E+02    0.93205E-08   -0.42051E-08  5272   0.144E-03
  94 F= -.62894599E+02 E0= -.62878672E+02  d E =-.346347E-06
 curvature:  -0.33 expect dE=-0.820E-06 dE for cont linesearch -0.533E-08
 trial: gam= 1.15171 g(F)=  0.189E-05 g(S)=  0.574E-06 ort = 0.272E-06 (trialstep = 0.126E+00)
 search vector abs. value=  0.920E-05
 bond charge predicted
       N       E                     dE             d eps       ncg     rms          rms(c)
DAV:   1    -0.628945989977E+02   -0.41596E-06   -0.82290E-06  4504   0.197E-02    0.175E-03
DAV:   2    -0.628945988999E+02    0.97793E-07   -0.15640E-07  4896   0.256E-03    0.901E-04
DAV:   3    -0.628945988547E+02    0.45288E-07   -0.15345E-07  5012   0.199E-03    0.223E-04
DAV:   4    -0.628945988476E+02    0.70816E-08   -0.37150E-09  2696   0.421E-04
  95 F= -.62894599E+02 E0= -.62878674E+02  d E =-.275117E-06
 trial-energy change:   -0.000000  1 .order   -0.000000   -0.000000   -0.000000
 step:   0.3881(harm=  0.3881)  dis= 0.00005  next Energy=   -62.894599 (dE=-0.540E-06)
 bond charge predicted
       N       E                     dE             d eps       ncg     rms          rms(c)
DAV:   1    -0.628945998788E+02   -0.10241E-05   -0.37127E-05  4488   0.415E-02    0.355E-03
DAV:   2    -0.628945994476E+02    0.43119E-06   -0.67762E-07  4864   0.540E-03    0.183E-03
DAV:   3    -0.628945992684E+02    0.17918E-06   -0.65073E-07  4976   0.411E-03    0.468E-04
DAV:   4    -0.628945992525E+02    0.15950E-07   -0.17822E-08  3560   0.905E-04    0.218E-04
DAV:   5    -0.628945992447E+02    0.77282E-08   -0.56987E-09  2732   0.518E-04
  96 F= -.62894599E+02 E0= -.62878677E+02  d E =-.672282E-06
 curvature:  -0.64 expect dE=-0.112E-05 dE for cont linesearch -0.636E-07
 trial: gam= 0.17988 g(F)=  0.141E-05 g(S)=  0.335E-06 ort = 0.955E-06 (trialstep = 0.179E+00)
 search vector abs. value=  0.238E-05
 bond charge predicted
       N       E                     dE             d eps       ncg     rms          rms(c)
DAV:   1    -0.628945995657E+02   -0.31319E-06   -0.73761E-06  4488   0.199E-02    0.129E-03
DAV:   2    -0.628945995244E+02    0.41281E-07   -0.21796E-07  5932   0.324E-03    0.701E-04
DAV:   3    -0.628945995080E+02    0.16343E-07   -0.66059E-08  5072   0.145E-03    0.246E-04
DAV:   4    -0.628945995026E+02    0.54031E-08   -0.47304E-09  2684   0.505E-04
  97 F= -.62894600E+02 E0= -.62878679E+02  d E =-.257890E-06
 trial-energy change:   -0.000000  1 .order   -0.000000   -0.000000   -0.000000
 step:   0.3531(harm=  0.3531)  dis= 0.00005  next Energy=   -62.894600 (dE=-0.338E-06)
 bond charge predicted
       N       E                     dE             d eps       ncg     rms          rms(c)
DAV:   1    -0.628945996368E+02   -0.12878E-06   -0.69128E-06  4488   0.193E-02    0.125E-03
DAV:   2    -0.628945995978E+02    0.38996E-07   -0.20089E-07  5960   0.312E-03    0.672E-04
DAV:   3    -0.628945995830E+02    0.14868E-07   -0.59975E-08  5096   0.138E-03    0.249E-04
DAV:   4    -0.628945995770E+02    0.59204E-08   -0.44846E-09  2792   0.488E-04
  98 F= -.62894600E+02 E0= -.62878681E+02  d E =-.332293E-06
 curvature:  -0.22 expect dE=-0.401E-06 dE for cont linesearch -0.197E-09
 trial: gam= 1.21156 g(F)=  0.150E-05 g(S)=  0.327E-06 ort =-0.462E-07 (trialstep = 0.977E-01)
 search vector abs. value=  0.521E-05
 bond charge predicted
       N       E                     dE             d eps       ncg     rms          rms(c)
DAV:   1    -0.628945997729E+02   -0.18998E-06   -0.35040E-06  4484   0.136E-02    0.986E-04
DAV:   2    -0.628945997403E+02    0.32671E-07   -0.77622E-08  5428   0.186E-03    0.484E-04
DAV:   3    -0.628945997219E+02    0.18317E-07   -0.45772E-08  4916   0.114E-03    0.146E-04
DAV:   4    -0.628945997172E+02    0.46969E-08   -0.27386E-09  2616   0.347E-04
  99 F= -.62894600E+02 E0= -.62878680E+02  d E =-.140216E-06
 ZBRENT: can't locate minimum, use default step
 trial-energy change:   -0.000000  1 .order   -0.000000   -0.000000   -0.000000
 step:   0.3906(harm=  0.4344)  dis= 0.00006  next Energy=   -62.894600 (dE=-0.384E-06)
 bond charge predicted
       N       E                     dE             d eps       ncg     rms          rms(c)
DAV:   1    -0.628946003816E+02   -0.65965E-06   -0.32080E-05  4480   0.410E-02    0.301E-03
DAV:   2    -0.628946000649E+02    0.31672E-06   -0.72181E-07  5488   0.567E-03    0.148E-03
DAV:   3    -0.628945999477E+02    0.11721E-06   -0.42595E-07  5140   0.347E-03    0.448E-04
DAV:   4    -0.628945999300E+02    0.17686E-07   -0.25836E-08  3848   0.104E-03    0.191E-04
DAV:   5    -0.628945999194E+02    0.10609E-07   -0.60634E-09  2920   0.520E-04    0.697E-05
DAV:   6    -0.628945999156E+02    0.38044E-08   -0.95519E-10  2656   0.225E-04
 100 F= -.62894600E+02 E0= -.62878677E+02  d E =-.338528E-06
 curvature:  -0.63 expect dE=-0.167E-05 dE for cont linesearch -0.614E-08
 trial: gam= 1.03040 g(F)=  0.237E-05 g(S)=  0.282E-06 ort = 0.225E-06 (trialstep = 0.942E-01)
 search vector abs. value=  0.864E-05
 bond charge predicted
       N       E                     dE             d eps       ncg     rms          rms(c)
DAV:   1    -0.628946002294E+02   -0.31008E-06   -0.55129E-06  4488   0.170E-02    0.119E-03
DAV:   2    -0.628946001874E+02    0.42011E-07   -0.11088E-07  5496   0.228E-03    0.617E-04
DAV:   3    -0.628946001637E+02    0.23759E-07   -0.62760E-08  5112   0.132E-03    0.150E-04
DAV:   4    -0.628946001584E+02    0.52444E-08   -0.20145E-09  2760   0.332E-04
 101 F= -.62894600E+02 E0= -.62878678E+02  d E =-.242874E-06
 ZBRENT: can't locate minimum, use default step
 trial-energy change:   -0.000000  1 .order   -0.000000   -0.000000   -0.000000
 step:   0.3766(harm=  0.5145)  dis= 0.00005  next Energy=   -62.894601 (dE=-0.741E-06)
 bond charge predicted
       N       E                     dE             d eps       ncg     rms          rms(c)
DAV:   1    -0.628946011826E+02   -0.10189E-05   -0.49585E-05  4480   0.509E-02    0.356E-03
DAV:   2    -0.628946007636E+02    0.41894E-06   -0.10006E-06  5548   0.685E-03    0.185E-03
DAV:   3    -0.628946005887E+02    0.17490E-06   -0.56490E-07  5148   0.397E-03    0.455E-04
DAV:   4    -0.628946005681E+02    0.20619E-07   -0.18466E-08  3500   0.100E-03    0.214E-04
DAV:   5    -0.628946005569E+02    0.11172E-07   -0.62897E-09  3008   0.524E-04    0.903E-05
DAV:   6    -0.628946005526E+02    0.42894E-08   -0.11031E-09  2688   0.252E-04
 102 F= -.62894601E+02 E0= -.62878678E+02  d E =-.637077E-06
 curvature:  -0.69 expect dE=-0.746E-06 dE for cont linesearch -0.308E-07
 trial: gam= 0.00000 g(F)=  0.681E-06 g(S)=  0.402E-06 ort = 0.622E-06 (trialstep = 0.151E+00)
 search vector abs. value=  0.108E-05
 bond charge predicted
       N       E                     dE             d eps       ncg     rms          rms(c)
DAV:   1    -0.628946006877E+02   -0.13073E-06   -0.25985E-06  4488   0.119E-02    0.822E-04
DAV:   2    -0.628946006880E+02   -0.29968E-09   -0.81690E-08  5676   0.204E-03
 103 F= -.62894601E+02 E0= -.62878681E+02  d E =-.135324E-06
 trial-energy change:   -0.000000  1 .order   -0.000000   -0.000000   -0.000000
 step:   0.3421(harm=  0.3421)  dis= 0.00002  next Energy=   -62.894601 (dE=-0.185E-06)
 bond charge predicted
       N       E                     dE             d eps       ncg     rms          rms(c)
DAV:   1    -0.628946007379E+02   -0.50218E-07   -0.38663E-06  4488   0.147E-02    0.109E-03
DAV:   2    -0.628946007313E+02    0.65586E-08   -0.11467E-07  5960   0.241E-03    0.557E-04
DAV:   3    -0.628946007392E+02   -0.78492E-08   -0.36702E-08  4876   0.123E-03
 104 F= -.62894601E+02 E0= -.62878683E+02  d E =-.186533E-06
 curvature:  -0.17 expect dE=-0.309E-06 dE for cont linesearch -0.243E-07
 trial: gam= 0.00000 g(F)=  0.151E-05 g(S)=  0.302E-06 ort =-0.392E-06 (trialstep = 0.113E+00)
 search vector abs. value=  0.181E-05
 bond charge predicted
       N       E                     dE             d eps       ncg     rms          rms(c)
DAV:   1    -0.628946008756E+02   -0.14428E-06   -0.33649E-06  4488   0.136E-02    0.839E-04
DAV:   2    -0.628946008480E+02    0.27567E-07   -0.10262E-07  5912   0.234E-03    0.386E-04
DAV:   3    -0.628946008399E+02    0.81614E-08   -0.19576E-08  2508   0.100E-03
 105 F= -.62894601E+02 E0= -.62878681E+02  d E =-.100707E-06
 trial-energy change:   -0.000000  1 .order   -0.000000   -0.000000   -0.000000
 step:   0.1335(harm=  0.1335)  dis= 0.00001  next Energy=   -62.894601 (dE=-0.121E-06)
 bond charge predicted
       N       E                     dE             d eps       ncg     rms          rms(c)
DAV:   1    -0.628946008416E+02    0.64149E-08   -0.10836E-07  4576   0.244E-03    0.198E-04
DAV:   2    -0.628946008380E+02    0.35789E-08   -0.24605E-09  2364   0.420E-04
 106 F= -.62894601E+02 E0= -.62878681E+02  d E =-.988741E-07
 curvature:  -0.07 expect dE=-0.265E-07 dE for cont linesearch -0.369E-10
 trial: gam= 0.20212 g(F)=  0.118E-06 g(S)=  0.279E-06 ort = 0.316E-07 (trialstep = 0.117E+00)
 search vector abs. value=  0.484E-06
 reached required accuracy - stopping structural energy minimisation
 writing wavefunctions
Sun Mar  6 01:28:08 CST 2022
