Sun Mar  6 00:48:22 CST 2022
 running on   48 total cores
 distrk:  each k-point on   48 cores,    1 groups
 distr:  one band on   24 cores,    2 groups
 using from now: INCAR     
 vasp.5.3.5 31Mar14 (build Jan 11 2016 19:50:55) complex                        
  
 POSCAR found type information on POSCAR  B  C 
 POSCAR found :  2 types and       8 ions
 scaLAPACK will be used

 ----------------------------------------------------------------------------- 
|                                                                             |
|           W    W    AA    RRRRR   N    N  II  N    N   GGGG   !!!           |
|           W    W   A  A   R    R  NN   N  II  NN   N  G    G  !!!           |
|           W    W  A    A  R    R  N N  N  II  N N  N  G       !!!           |
|           W WW W  AAAAAA  RRRRR   N  N N  II  N  N N  G  GGG   !            |
|           WW  WW  A    A  R   R   N   NN  II  N   NN  G    G                |
|           W    W  A    A  R    R  N    N  II  N    N   GGGG   !!!           |
|                                                                             |
|      For optimal performance we recommend to set                            |
|        NCORE= 4 - approx SQRT( number of cores)                             |
|      NCORE specifies how many cores store one orbital (NPAR=cpu/NCORE).     |
|      This setting can  greatly improve the performance of VASP for DFT.     |
|      The default, NPAR=number of cores might be grossly inefficient         |
|      on modern multi-core architectures or massively parallel machines.     |
|      Do your own testing !!!!                                               |
|      Unfortunately you need to use the default for GW and RPA calculations. |
|      (for HF NCORE is supported but not extensively tested yet)             |
|                                                                             |
 ----------------------------------------------------------------------------- 

 LDA part: xc-table for Pade appr. of Perdew
 POSCAR, INCAR and KPOINTS ok, starting setup
 WARNING: small aliasing (wrap around) errors must be expected
 FFT: planning ...
 WAVECAR not read
 entering main loop
       N       E                     dE             d eps       ncg     rms          rms(c)
DAV:   1     0.130141158922E+03    0.13014E+03   -0.18458E+04  4480   0.183E+03
DAV:   2    -0.621797514950E+02   -0.19232E+03   -0.18460E+03  6184   0.295E+02
DAV:   3    -0.715587539423E+02   -0.93790E+01   -0.92782E+01  5320   0.660E+01
DAV:   4    -0.717385534518E+02   -0.17980E+00   -0.17947E+00  5628   0.995E+00
DAV:   5    -0.717431027249E+02   -0.45493E-02   -0.45479E-02  5500   0.152E+00    0.129E+01
DAV:   6    -0.677105605656E+02    0.40325E+01   -0.51650E+00  5088   0.126E+01    0.728E+00
DAV:   7    -0.664524140035E+02    0.12581E+01   -0.30589E+00  5128   0.977E+00    0.238E+00
DAV:   8    -0.664284799473E+02    0.23934E-01   -0.18592E-01  5500   0.267E+00    0.989E-01
DAV:   9    -0.664312844780E+02   -0.28045E-02   -0.15052E-02  5312   0.837E-01    0.279E-01
DAV:  10    -0.664320651899E+02   -0.78071E-03   -0.17169E-03  5488   0.309E-01    0.503E-02
DAV:  11    -0.664321817974E+02   -0.11661E-03   -0.31182E-04  5312   0.121E-01    0.242E-02
DAV:  12    -0.664322305225E+02   -0.48725E-04   -0.75228E-05  5320   0.581E-02    0.701E-03
DAV:  13    -0.664322315058E+02   -0.98325E-06   -0.66265E-06  5960   0.170E-02    0.238E-03
DAV:  14    -0.664322317868E+02   -0.28101E-06   -0.11229E-06  5304   0.723E-03    0.650E-04
DAV:  15    -0.664322318211E+02   -0.34366E-07   -0.65271E-08  5244   0.172E-03    0.280E-04
DAV:  16    -0.664322318227E+02   -0.15289E-08   -0.94494E-09  3452   0.695E-04
   1 F= -.66432232E+02 E0= -.66419190E+02  d E =-.664322E+02
 curvature:   0.00 expect dE= 0.000E+00 dE for cont linesearch  0.000E+00
 trial: gam= 0.00000 g(F)=  0.358E-02 g(S)=  0.259E-02 ort = 0.000E+00 (trialstep = 0.100E+01)
 search vector abs. value=  0.617E-02
 bond charge predicted
       N       E                     dE             d eps       ncg     rms          rms(c)
DAV:   1    -0.664314296275E+02    0.80219E-03   -0.57767E-01  4772   0.565E+00    0.293E-01
DAV:   2    -0.664305350991E+02    0.89453E-03   -0.14832E-02  5328   0.878E-01    0.174E-01
DAV:   3    -0.664295617373E+02    0.97336E-03   -0.25363E-03  5176   0.381E-01    0.250E-02
DAV:   4    -0.664295919590E+02   -0.30222E-04   -0.33776E-04  5280   0.115E-01    0.185E-02
DAV:   5    -0.664295924280E+02   -0.46904E-06   -0.54818E-06  5692   0.170E-02    0.745E-03
DAV:   6    -0.664295926501E+02   -0.22204E-06   -0.48090E-07  5216   0.518E-03    0.132E-03
DAV:   7    -0.664295927105E+02   -0.60447E-07   -0.70432E-08  5260   0.186E-03    0.457E-04
DAV:   8    -0.664295927145E+02   -0.40361E-08   -0.88106E-09  3288   0.719E-04
   2 F= -.66429593E+02 E0= -.66416479E+02  d E =0.263911E-02
 trial-energy change:    0.002639  1 .order    0.002692   -0.006169    0.011553
 step:   0.3522(harm=  0.3481)  dis= 0.00198  next Energy=   -66.433321 (dE=-0.109E-02)
 bond charge predicted
       N       E                     dE             d eps       ncg     rms          rms(c)
DAV:   1    -0.664340747830E+02   -0.44821E-02   -0.24237E-01  4744   0.366E+00    0.187E-01
DAV:   2    -0.664337205310E+02    0.35425E-03   -0.62382E-03  5328   0.569E-01    0.113E-01
DAV:   3    -0.664333081148E+02    0.41242E-03   -0.10708E-03  5148   0.248E-01    0.159E-02
DAV:   4    -0.664333203747E+02   -0.12260E-04   -0.14186E-04  5272   0.749E-02    0.116E-02
DAV:   5    -0.664333202091E+02    0.16562E-06   -0.23694E-06  5524   0.111E-02    0.453E-03
DAV:   6    -0.664333201315E+02    0.77561E-07   -0.21262E-07  5200   0.346E-03    0.880E-04
DAV:   7    -0.664333201234E+02    0.81336E-08   -0.35198E-08  4696   0.132E-03
   3 F= -.66433320E+02 E0= -.66420259E+02  d E =-.108830E-02
 curvature:  -0.17 expect dE=-0.223E-03 dE for cont linesearch -0.198E-08
 trial: gam= 0.20671 g(F)=  0.614E-03 g(S)=  0.670E-03 ort = 0.838E-05 (trialstep = 0.870E+00)
 search vector abs. value=  0.155E-02
 bond charge predicted
       N       E                     dE             d eps       ncg     rms          rms(c)
DAV:   1    -0.664347930868E+02   -0.14730E-02   -0.65975E-02  4600   0.188E+00    0.135E-01
DAV:   2    -0.664341272718E+02    0.66582E-03   -0.14532E-03  5232   0.268E-01    0.677E-02
DAV:   3    -0.664339013809E+02    0.22589E-03   -0.77033E-04  5124   0.159E-01    0.188E-02
DAV:   4    -0.664338964274E+02    0.49535E-05   -0.45865E-05  5144   0.449E-02    0.813E-03
DAV:   5    -0.664338956257E+02    0.80172E-06   -0.46436E-06  5216   0.142E-02    0.350E-03
DAV:   6    -0.664338957639E+02   -0.13819E-06   -0.33198E-07  5228   0.426E-03    0.137E-03
DAV:   7    -0.664338958475E+02   -0.83622E-07   -0.67935E-08  5096   0.185E-03    0.374E-04
DAV:   8    -0.664338958567E+02   -0.91698E-08   -0.75743E-09  3260   0.592E-04
   4 F= -.66433896E+02 E0= -.66421026E+02  d E =-.575733E-03
 trial-energy change:   -0.000576  1 .order   -0.000576   -0.001119   -0.000033
 step:   0.8965(harm=  0.8965)  dis= 0.00140  next Energy=   -66.433896 (dE=-0.576E-03)
 bond charge predicted
       N       E                     dE             d eps       ncg     rms          rms(c)
DAV:   1    -0.664338971542E+02   -0.13067E-05   -0.59179E-05  4764   0.562E-02    0.404E-03
DAV:   2    -0.664338965201E+02    0.63410E-06   -0.13023E-06  5244   0.802E-03    0.204E-03
DAV:   3    -0.664338963205E+02    0.19965E-06   -0.70173E-07  5196   0.480E-03    0.563E-04
DAV:   4    -0.664338963263E+02   -0.58528E-08   -0.41016E-08  4808   0.135E-03
   5 F= -.66433896E+02 E0= -.66421031E+02  d E =-.576203E-03
 curvature:  -0.54 expect dE=-0.675E-03 dE for cont linesearch -0.686E-09
 trial: gam= 0.97594 g(F)=  0.631E-03 g(S)=  0.617E-03 ort = 0.140E-05 (trialstep = 0.498E+00)
 search vector abs. value=  0.273E-02
 bond charge predicted
       N       E                     dE             d eps       ncg     rms          rms(c)
DAV:   1    -0.664353216908E+02   -0.14254E-02   -0.36663E-02  4480   0.127E+00    0.128E-01
DAV:   2    -0.664346702824E+02    0.65141E-03   -0.87110E-04  5132   0.187E-01    0.649E-02
DAV:   3    -0.664344418250E+02    0.22846E-03   -0.70729E-04  5048   0.146E-01    0.146E-02
DAV:   4    -0.664344407345E+02    0.10905E-05   -0.17239E-05  5180   0.280E-02    0.698E-03
DAV:   5    -0.664344405472E+02    0.18731E-06   -0.26594E-06  5308   0.105E-02    0.241E-03
DAV:   6    -0.664344406856E+02   -0.13842E-06   -0.29950E-07  5144   0.356E-03    0.509E-04
DAV:   7    -0.664344407319E+02   -0.46317E-07   -0.26713E-08  4548   0.117E-03    0.302E-04
DAV:   8    -0.664344407409E+02   -0.89710E-08   -0.58507E-09  3148   0.556E-04
   6 F= -.66434441E+02 E0= -.66421662E+02  d E =-.544415E-03
 ZBRENT: can't locate minimum, use default step
 trial-energy change:   -0.000544  1 .order   -0.000545   -0.000622   -0.000469
 step:   1.9908(harm=  2.0192)  dis= 0.00219  next Energy=   -66.435158 (dE=-0.126E-02)
 bond charge predicted
       N       E                     dE             d eps       ncg     rms          rms(c)
DAV:   1    -0.664430847928E+02   -0.86441E-02   -0.33217E-01  4480   0.383E+00    0.387E-01
DAV:   2    -0.664372014973E+02    0.58833E-02   -0.79120E-03  5136   0.564E-01    0.195E-01
DAV:   3    -0.664351578950E+02    0.20436E-02   -0.62569E-03  5040   0.435E-01    0.432E-02
DAV:   4    -0.664351461553E+02    0.11740E-04   -0.14910E-04  5220   0.827E-02    0.208E-02
DAV:   5    -0.664351434151E+02    0.27402E-05   -0.22637E-05  5308   0.307E-02    0.716E-03
DAV:   6    -0.664351441664E+02   -0.75129E-06   -0.23442E-06  5156   0.101E-02    0.156E-03
DAV:   7    -0.664351444089E+02   -0.24250E-06   -0.24383E-07  5312   0.346E-03    0.896E-04
DAV:   8    -0.664351444509E+02   -0.42011E-07   -0.68165E-08  5120   0.173E-03    0.320E-04
DAV:   9    -0.664351444497E+02    0.12574E-08   -0.91466E-09  3216   0.621E-04
   7 F= -.66435144E+02 E0= -.66422525E+02  d E =-.124812E-02
 curvature:  -2.20 expect dE=-0.736E-02 dE for cont linesearch -0.148E-06
 trial: gam= 2.64896 g(F)=  0.154E-02 g(S)=  0.180E-02 ort =-0.136E-04 (trialstep = 0.969E-01)
 search vector abs. value=  0.224E-01
 bond charge predicted
       N       E                     dE             d eps       ncg     rms          rms(c)
DAV:   1    -0.664357227151E+02   -0.57826E-03   -0.11477E-02  4528   0.709E-01    0.719E-02
DAV:   2    -0.664355143265E+02    0.20839E-03   -0.27911E-04  5172   0.107E-01    0.370E-02
DAV:   3    -0.664354408637E+02    0.73463E-04   -0.24182E-04  5016   0.867E-02    0.926E-03
DAV:   4    -0.664354402231E+02    0.64063E-06   -0.87127E-06  5168   0.198E-02    0.384E-03
DAV:   5    -0.664354401204E+02    0.10270E-06   -0.92038E-07  5212   0.635E-03    0.186E-03
DAV:   6    -0.664354402077E+02   -0.87326E-07   -0.19718E-07  5112   0.278E-03    0.431E-04
DAV:   7    -0.664354402100E+02   -0.22840E-08   -0.13725E-08  3348   0.775E-04
   8 F= -.66435440E+02 E0= -.66422853E+02  d E =-.295760E-03
 ZBRENT: can't locate minimum, use default step
 trial-energy change:   -0.000296  1 .order   -0.000299   -0.000321   -0.000278
 step:   0.3877(harm=  0.7247)  dis= 0.00085  next Energy=   -66.436343 (dE=-0.120E-02)
 bond charge predicted
       N       E                     dE             d eps       ncg     rms          rms(c)
DAV:   1    -0.664386222990E+02   -0.31821E-02   -0.10366E-01  4504   0.213E+00    0.217E-01
DAV:   2    -0.664367449438E+02    0.18774E-02   -0.25245E-03  5148   0.323E-01    0.111E-01
DAV:   3    -0.664360843277E+02    0.66062E-03   -0.21583E-03  5040   0.259E-01    0.276E-02
DAV:   4    -0.664360773125E+02    0.70152E-05   -0.76763E-05  5172   0.590E-02    0.115E-02
DAV:   5    -0.664360760486E+02    0.12639E-05   -0.80186E-06  5208   0.188E-02    0.554E-03
DAV:   6    -0.664360764632E+02   -0.41466E-06   -0.16926E-06  5120   0.820E-03    0.128E-03
DAV:   7    -0.664360764596E+02    0.36200E-08   -0.13333E-07  5260   0.229E-03    0.507E-04
DAV:   8    -0.664360764726E+02   -0.13010E-07   -0.96951E-09  3288   0.728E-04    0.249E-04
DAV:   9    -0.664360764758E+02   -0.31414E-08   -0.45902E-09  3104   0.500E-04
   9 F= -.66436076E+02 E0= -.66423545E+02  d E =-.932026E-03
 curvature:  -1.75 expect dE=-0.160E-02 dE for cont linesearch -0.177E-03
 ZBRENT: increasing intervall
 opt :   0.9692  next Energy=   -66.436165 (dE=-0.102E-02)
 bond charge predicted
       N       E                     dE             d eps       ncg     rms          rms(c)
DAV:   1    -0.664463739575E+02   -0.10297E-01   -0.41792E-01  4488   0.429E+00    0.437E-01
DAV:   2    -0.664388202796E+02    0.75537E-02   -0.10192E-02  5152   0.649E-01    0.223E-01
DAV:   3    -0.664361805684E+02    0.26397E-02   -0.85278E-03  5032   0.517E-01    0.546E-02
DAV:   4    -0.664361516221E+02    0.28946E-04   -0.29580E-04  5208   0.116E-01    0.230E-02
DAV:   5    -0.664361463458E+02    0.52763E-05   -0.30397E-05  5216   0.368E-02    0.109E-02
DAV:   6    -0.664361475804E+02   -0.12346E-05   -0.62526E-06  5116   0.159E-02    0.252E-03
DAV:   7    -0.664361475485E+02    0.31871E-07   -0.50186E-07  5296   0.446E-03    0.995E-04
DAV:   8    -0.664361475864E+02   -0.37956E-07   -0.41119E-08  5064   0.142E-03    0.481E-04
DAV:   9    -0.664361475938E+02   -0.73303E-08   -0.13889E-08  3768   0.834E-04
  10 F= -.66436148E+02 E0= -.66423566E+02  d E =-.100314E-02
 curvature:  -0.87 expect dE=-0.677E-03 dE for cont linesearch -0.628E-04
 ZBRENT: bracketing found
 ZBRENT: interpolating
 opt :   0.7030  next Energy=   -66.436317 (dE=-0.117E-02)
 bond charge predicted
       N       E                     dE             d eps       ncg     rms          rms(c)
DAV:   1    -0.664384725256E+02   -0.23249E-02   -0.87828E-02  4480   0.196E+00    0.198E-01
DAV:   2    -0.664368967898E+02    0.15757E-02   -0.21085E-03  5132   0.297E-01    0.103E-01
DAV:   3    -0.664363259046E+02    0.57089E-03   -0.18888E-03  5020   0.242E-01    0.259E-02
DAV:   4    -0.664363183410E+02    0.75635E-05   -0.67975E-05  5192   0.552E-02    0.108E-02
DAV:   5    -0.664363168319E+02    0.15091E-05   -0.73878E-06  5212   0.179E-02    0.517E-03
DAV:   6    -0.664363168339E+02   -0.19108E-08   -0.15794E-06  5128   0.776E-03    0.114E-03
DAV:   7    -0.664363168036E+02    0.30264E-07   -0.11344E-07  5256   0.211E-03    0.486E-04
DAV:   8    -0.664363168031E+02    0.52933E-09   -0.96682E-09  3288   0.706E-04
  11 F= -.66436317E+02 E0= -.66423782E+02  d E =-.117235E-02
 curvature:  -2.34 expect dE=-0.751E-03 dE for cont linesearch -0.197E-08
 trial: gam= 0.00692 g(F)=  0.289E-03 g(S)=  0.315E-04 ort = 0.434E-05 (trialstep = 0.218E+00)
 search vector abs. value=  0.322E-03
 bond charge predicted
       N       E                     dE             d eps       ncg     rms          rms(c)
DAV:   1    -0.664363693035E+02   -0.52500E-04   -0.10992E-03  4760   0.248E-01    0.104E-02
DAV:   2    -0.664363679489E+02    0.13545E-05   -0.24733E-05  5284   0.378E-02    0.508E-03
DAV:   3    -0.664363678441E+02    0.10489E-06   -0.27075E-06  5232   0.111E-02    0.266E-03
DAV:   4    -0.664363678700E+02   -0.25959E-07   -0.35969E-07  5576   0.381E-03    0.143E-03
DAV:   5    -0.664363679232E+02   -0.53211E-07   -0.92887E-08  5136   0.233E-03    0.244E-04
DAV:   6    -0.664363679186E+02    0.46684E-08   -0.14004E-08  3024   0.919E-04
  12 F= -.66436368E+02 E0= -.66423794E+02  d E =-.511155E-04
 trial-energy change:   -0.000051  1 .order   -0.000051   -0.000070   -0.000032
 step:   0.3820(harm=  0.3978)  dis= 0.00066  next Energy=   -66.436380 (dE=-0.631E-04)
 bond charge predicted
       N       E                     dE             d eps       ncg     rms          rms(c)
DAV:   1    -0.664363818231E+02   -0.13900E-04   -0.62102E-04  4768   0.186E-01    0.786E-03
DAV:   2    -0.664363810706E+02    0.75243E-06   -0.14005E-05  5292   0.285E-02    0.382E-03
DAV:   3    -0.664363810324E+02    0.38223E-07   -0.15353E-06  5240   0.836E-03    0.201E-03
DAV:   4    -0.664363810573E+02   -0.24880E-07   -0.20338E-07  5612   0.286E-03    0.108E-03
DAV:   5    -0.664363810985E+02   -0.41189E-07   -0.52441E-08  5020   0.175E-03    0.184E-04
DAV:   6    -0.664363810954E+02    0.30329E-08   -0.79609E-09  2892   0.692E-04
  13 F= -.66436381E+02 E0= -.66423777E+02  d E =-.642924E-04
 curvature:  -0.20 expect dE=-0.929E-05 dE for cont linesearch -0.100E-06
 ZBRENT: extrapolating
 opt :   0.3979  next Energy=   -66.436381 (dE=-0.644E-04)
 bond charge predicted
       N       E                     dE             d eps       ncg     rms          rms(c)
DAV:   1    -0.664363812086E+02   -0.11008E-06   -0.58472E-06  4788   0.181E-02    0.771E-04
DAV:   2    -0.664363812092E+02   -0.68485E-09   -0.13311E-07  5312   0.278E-03    0.371E-04
DAV:   3    -0.664363812167E+02   -0.74579E-08   -0.13372E-08  2984   0.823E-04
  14 F= -.66436381E+02 E0= -.66423775E+02  d E =-.644136E-04
 curvature:  -0.20 expect dE=-0.100E-04 dE for cont linesearch -0.528E-11
 trial: gam= 0.15660 g(F)=  0.366E-04 g(S)=  0.136E-04 ort = 0.923E-07 (trialstep = 0.254E+00)
 search vector abs. value=  0.581E-04
 bond charge predicted
       N       E                     dE             d eps       ncg     rms          rms(c)
DAV:   1    -0.664363916020E+02   -0.10393E-04   -0.23995E-04  4788   0.124E-01    0.563E-03
DAV:   2    -0.664363913075E+02    0.29450E-06   -0.48445E-06  5332   0.171E-02    0.331E-03
DAV:   3    -0.664363911210E+02    0.18647E-06   -0.59237E-07  5220   0.597E-03    0.105E-03
DAV:   4    -0.664363911360E+02   -0.15033E-07   -0.11452E-07  5196   0.227E-03    0.380E-04
DAV:   5    -0.664363911444E+02   -0.83294E-08   -0.79042E-09  3172   0.691E-04
  15 F= -.66436391E+02 E0= -.66423786E+02  d E =-.992766E-05
 trial-energy change:   -0.000010  1 .order   -0.000010   -0.000013   -0.000007
 step:   0.4741(harm=  0.5410)  dis= 0.00020  next Energy=   -66.436394 (dE=-0.130E-04)
 bond charge predicted
       N       E                     dE             d eps       ncg     rms          rms(c)
DAV:   1    -0.664363952281E+02   -0.40920E-05   -0.18000E-04  4812   0.108E-01    0.489E-03
DAV:   2    -0.664363950187E+02    0.20937E-06   -0.36204E-06  5332   0.148E-02    0.287E-03
DAV:   3    -0.664363948848E+02    0.13388E-06   -0.44641E-07  5212   0.518E-03    0.893E-04
DAV:   4    -0.664363948985E+02   -0.13710E-07   -0.85463E-08  5108   0.196E-03    0.329E-04
DAV:   5    -0.664363949055E+02   -0.70245E-08   -0.58100E-09  3140   0.593E-04
  16 F= -.66436395E+02 E0= -.66423792E+02  d E =-.136888E-04
 curvature:  -0.30 expect dE=-0.277E-05 dE for cont linesearch -0.200E-06
 ZBRENT: extrapolating
 opt :   0.5417  next Energy=   -66.436395 (dE=-0.139E-04)
 bond charge predicted
       N       E                     dE             d eps       ncg     rms          rms(c)
DAV:   1    -0.664363951617E+02   -0.26317E-06   -0.17013E-05  4860   0.331E-02    0.151E-03
DAV:   2    -0.664363951569E+02    0.47785E-08   -0.34179E-07  5336   0.454E-03    0.885E-04
DAV:   3    -0.664363951554E+02    0.14795E-08   -0.42320E-08  5172   0.160E-03
  17 F= -.66436395E+02 E0= -.66423793E+02  d E =-.139387E-04
 curvature:  -0.31 expect dE=-0.346E-05 dE for cont linesearch -0.251E-09
 trial: gam= 0.21571 g(F)=  0.708E-05 g(S)=  0.395E-05 ort = 0.216E-06 (trialstep = 0.312E+00)
 search vector abs. value=  0.138E-04
 bond charge predicted
       N       E                     dE             d eps       ncg     rms          rms(c)
DAV:   1    -0.664363976345E+02   -0.24776E-05   -0.10061E-04  4512   0.826E-02    0.240E-03
DAV:   2    -0.664363976143E+02    0.20191E-07   -0.11444E-06  5356   0.802E-03    0.157E-03
DAV:   3    -0.664363975240E+02    0.90312E-07   -0.72896E-08  5192   0.201E-03    0.494E-04
DAV:   4    -0.664363974968E+02    0.27156E-07   -0.71866E-09  3064   0.624E-04    0.161E-04
DAV:   5    -0.664363974881E+02    0.87848E-08   -0.14471E-09  2780   0.273E-04
  18 F= -.66436397E+02 E0= -.66423792E+02  d E =-.233263E-05
 trial-energy change:   -0.000002  1 .order   -0.000002   -0.000003   -0.000001
 step:   0.5459(harm=  0.5459)  dis= 0.00019  next Energy=   -66.436398 (dE=-0.302E-05)
 bond charge predicted
       N       E                     dE             d eps       ncg     rms          rms(c)
DAV:   1    -0.664363980480E+02   -0.55117E-06   -0.56835E-05  4536   0.621E-02    0.180E-03
DAV:   2    -0.664363980230E+02    0.24999E-07   -0.63494E-07  5348   0.597E-03    0.117E-03
DAV:   3    -0.664363979574E+02    0.65592E-07   -0.40552E-08  4724   0.150E-03    0.364E-04
DAV:   4    -0.664363979374E+02    0.20029E-07   -0.46331E-09  2940   0.507E-04    0.120E-04
DAV:   5    -0.664363979309E+02    0.64899E-08   -0.94473E-10  2724   0.221E-04
  19 F= -.66436398E+02 E0= -.66423791E+02  d E =-.277547E-05
 curvature:  -0.34 expect dE=-0.738E-06 dE for cont linesearch -0.460E-11
 trial: gam= 0.19964 g(F)=  0.181E-05 g(S)=  0.357E-06 ort =-0.137E-07 (trialstep = 0.358E+00)
 search vector abs. value=  0.271E-05
 bond charge predicted
       N       E                     dE             d eps       ncg     rms          rms(c)
DAV:   1    -0.664363985442E+02   -0.60679E-06   -0.25243E-05  4532   0.394E-02    0.125E-03
DAV:   2    -0.664363985395E+02    0.47112E-08   -0.33740E-07  5268   0.433E-03    0.742E-04
DAV:   3    -0.664363985393E+02    0.13347E-09   -0.33473E-08  4380   0.129E-03
  20 F= -.66436399E+02 E0= -.66423793E+02  d E =-.608439E-06
 trial-energy change:   -0.000001  1 .order   -0.000001   -0.000001   -0.000000
 step:   0.7630(harm=  0.7630)  dis= 0.00013  next Energy=   -66.436399 (dE=-0.825E-06)
 bond charge predicted
       N       E                     dE             d eps       ncg     rms          rms(c)
DAV:   1    -0.664363987974E+02   -0.25795E-06   -0.32190E-05  4552   0.445E-02    0.149E-03
DAV:   2    -0.664363987886E+02    0.87784E-08   -0.43804E-07  5272   0.495E-03    0.888E-04
DAV:   3    -0.664363987867E+02    0.19604E-08   -0.47017E-08  5176   0.150E-03
  21 F= -.66436399E+02 E0= -.66423795E+02  d E =-.855780E-06
 curvature:  -0.48 expect dE=-0.450E-06 dE for cont linesearch -0.203E-10
 trial: gam= 0.43718 g(F)=  0.717E-06 g(S)=  0.223E-06 ort =-0.107E-07 (trialstep = 0.439E+00)
 search vector abs. value=  0.145E-05
 bond charge predicted
       N       E                     dE             d eps       ncg     rms          rms(c)
DAV:   1    -0.664363990660E+02   -0.27740E-06   -0.21673E-05  4620   0.361E-02    0.168E-03
DAV:   2    -0.664363990492E+02    0.16831E-07   -0.41258E-07  5284   0.459E-03    0.992E-04
DAV:   3    -0.664363990414E+02    0.78624E-08   -0.80338E-08  5208   0.186E-03
  22 F= -.66436399E+02 E0= -.66423795E+02  d E =-.254672E-06
 trial-energy change:   -0.000000  1 .order   -0.000000   -0.000000   -0.000000
 step:   0.4446(harm=  0.4481)  dis= 0.00004  next Energy=   -66.436399 (dE=-0.255E-06)
 bond charge predicted
       N       E                     dE             d eps       ncg     rms          rms(c)
DAV:   1    -0.664363990423E+02    0.69128E-08   -0.96436E-09  2984   0.743E-04    0.127E-04
DAV:   2    -0.664363990434E+02   -0.11316E-08   -0.10892E-09  2676   0.258E-04
  23 F= -.66436399E+02 E0= -.66423795E+02  d E =-.256753E-06
 curvature:  -0.29 expect dE=-0.756E-07 dE for cont linesearch -0.630E-11
 trial: gam= 0.26683 g(F)=  0.111E-06 g(S)=  0.150E-06 ort =-0.561E-08 (trialstep = 0.440E+00)
 search vector abs. value=  0.361E-06
 bond charge predicted
       N       E                     dE             d eps       ncg     rms          rms(c)
DAV:   1    -0.664363991741E+02   -0.13184E-06   -0.49342E-06  4532   0.168E-02    0.989E-04
DAV:   2    -0.664363991469E+02    0.27199E-07   -0.95054E-08  5344   0.224E-03    0.526E-04
DAV:   3    -0.664363991289E+02    0.18079E-07   -0.37038E-08  4736   0.117E-03    0.117E-04
DAV:   4    -0.664363991251E+02    0.37662E-08   -0.17590E-09  2640   0.317E-04
  24 F= -.66436399E+02 E0= -.66423795E+02  d E =-.816644E-07
 trial-energy change:   -0.000000  1 .order   -0.000000   -0.000000   -0.000000
 step:   0.8073(harm=  0.8073)  dis= 0.00002  next Energy=   -66.436399 (dE=-0.105E-06)
 bond charge predicted
       N       E                     dE             d eps       ncg     rms          rms(c)
DAV:   1    -0.664363991760E+02   -0.47154E-07   -0.34153E-06  4596   0.140E-02    0.820E-04
DAV:   2    -0.664363991571E+02    0.18948E-07   -0.65142E-08  5284   0.186E-03    0.435E-04
DAV:   3    -0.664363991436E+02    0.13515E-07   -0.24313E-08  3696   0.969E-04    0.900E-05
DAV:   4    -0.664363991396E+02    0.39963E-08   -0.19189E-09  2616   0.335E-04
  25 F= -.66436399E+02 E0= -.66423796E+02  d E =-.961247E-07
 curvature:  -0.56 expect dE=-0.572E-07 dE for cont linesearch -0.389E-12
 trial: gam= 0.42685 g(F)=  0.525E-07 g(S)=  0.494E-07 ort =-0.500E-09 (trialstep = 0.514E+00)
 search vector abs. value=  0.167E-06
 reached required accuracy - stopping structural energy minimisation
 writing wavefunctions
Sun Mar  6 01:02:41 CST 2022
