Sun Mar  6 00:54:53 CST 2022
 running on   48 total cores
 distrk:  each k-point on   48 cores,    1 groups
 distr:  one band on   24 cores,    2 groups
 using from now: INCAR     
 vasp.5.3.5 31Mar14 (build Jan 11 2016 19:50:55) complex                        
  
 POSCAR found type information on POSCAR  B  C 
 POSCAR found :  2 types and       8 ions
 scaLAPACK will be used

 ----------------------------------------------------------------------------- 
|                                                                             |
|           W    W    AA    RRRRR   N    N  II  N    N   GGGG   !!!           |
|           W    W   A  A   R    R  NN   N  II  NN   N  G    G  !!!           |
|           W    W  A    A  R    R  N N  N  II  N N  N  G       !!!           |
|           W WW W  AAAAAA  RRRRR   N  N N  II  N  N N  G  GGG   !            |
|           WW  WW  A    A  R   R   N   NN  II  N   NN  G    G                |
|           W    W  A    A  R    R  N    N  II  N    N   GGGG   !!!           |
|                                                                             |
|      For optimal performance we recommend to set                            |
|        NCORE= 4 - approx SQRT( number of cores)                             |
|      NCORE specifies how many cores store one orbital (NPAR=cpu/NCORE).     |
|      This setting can  greatly improve the performance of VASP for DFT.     |
|      The default, NPAR=number of cores might be grossly inefficient         |
|      on modern multi-core architectures or massively parallel machines.     |
|      Do your own testing !!!!                                               |
|      Unfortunately you need to use the default for GW and RPA calculations. |
|      (for HF NCORE is supported but not extensively tested yet)             |
|                                                                             |
 ----------------------------------------------------------------------------- 

 LDA part: xc-table for Pade appr. of Perdew
 POSCAR, INCAR and KPOINTS ok, starting setup
 WARNING: small aliasing (wrap around) errors must be expected
 FFT: planning ...
 WAVECAR not read
 entering main loop
       N       E                     dE             d eps       ncg     rms          rms(c)
DAV:   1     0.157534649073E+03    0.15753E+03   -0.16986E+04  4480   0.174E+03
DAV:   2    -0.502289354378E+02   -0.20776E+03   -0.19990E+03  6136   0.297E+02
DAV:   3    -0.640732020580E+02   -0.13844E+02   -0.13660E+02  5540   0.771E+01
DAV:   4    -0.644600863979E+02   -0.38688E+00   -0.38516E+00  6116   0.135E+01
DAV:   5    -0.644689244610E+02   -0.88381E-02   -0.88348E-02  5692   0.201E+00    0.125E+01
DAV:   6    -0.601344668155E+02    0.43345E+01   -0.74394E+00  5064   0.159E+01    0.687E+00
DAV:   7    -0.591434856804E+02    0.99098E+00   -0.33357E+00  5248   0.105E+01    0.250E+00
DAV:   8    -0.591159129986E+02    0.27573E-01   -0.16829E-01  5808   0.268E+00    0.769E-01
DAV:   9    -0.591197857008E+02   -0.38727E-02   -0.12937E-02  5748   0.777E-01    0.189E-01
DAV:  10    -0.591209621135E+02   -0.11764E-02   -0.26173E-03  5804   0.361E-01    0.435E-02
DAV:  11    -0.591210628898E+02   -0.10078E-03   -0.24541E-04  5644   0.112E-01    0.258E-02
DAV:  12    -0.591211302812E+02   -0.67391E-04   -0.87901E-05  4964   0.787E-02    0.660E-03
DAV:  13    -0.591211330895E+02   -0.28083E-05   -0.88703E-06  5664   0.211E-02    0.273E-03
DAV:  14    -0.591211334792E+02   -0.38969E-06   -0.12999E-06  5216   0.998E-03    0.937E-04
DAV:  15    -0.591211334660E+02    0.13222E-07   -0.11391E-07  6308   0.226E-03    0.397E-04
DAV:  16    -0.591211334940E+02   -0.27996E-07   -0.27893E-08  4504   0.143E-03    0.136E-04
DAV:  17    -0.591211334956E+02   -0.16303E-08   -0.31634E-09  3164   0.505E-04
   1 F= -.59121133E+02 E0= -.59113993E+02  d E =-.591211E+02
 curvature:   0.00 expect dE= 0.000E+00 dE for cont linesearch  0.000E+00
 trial: gam= 0.00000 g(F)=  0.206E-02 g(S)=  0.211E-02 ort = 0.000E+00 (trialstep = 0.100E+01)
 search vector abs. value=  0.417E-02
 bond charge predicted
       N       E                     dE             d eps       ncg     rms          rms(c)
DAV:   1    -0.591205669724E+02    0.56652E-03   -0.38727E-01  4536   0.462E+00    0.257E-01
DAV:   2    -0.591192482429E+02    0.13187E-02   -0.89468E-03  5404   0.686E-01    0.163E-01
DAV:   3    -0.591184444861E+02    0.80376E-03   -0.27928E-03  5152   0.332E-01    0.469E-02
DAV:   4    -0.591184346841E+02    0.98020E-05   -0.20663E-04  5316   0.103E-01    0.242E-02
DAV:   5    -0.591184314527E+02    0.32313E-05   -0.17717E-05  5440   0.295E-02    0.655E-03
DAV:   6    -0.591184313692E+02    0.83499E-07   -0.25335E-06  5444   0.113E-02    0.199E-03
DAV:   7    -0.591184315227E+02   -0.15346E-06   -0.30775E-07  5552   0.391E-03    0.815E-04
DAV:   8    -0.591184315381E+02   -0.15371E-07   -0.30793E-08  5032   0.122E-03    0.300E-04
DAV:   9    -0.591184315538E+02   -0.15705E-07   -0.72921E-09  3016   0.648E-04    0.964E-05
DAV:  10    -0.591184315523E+02    0.14484E-08   -0.18309E-09  2708   0.282E-04
   2 F= -.59118432E+02 E0= -.59111929E+02  d E =0.270194E-02
 trial-energy change:    0.002702  1 .order    0.002736   -0.004171    0.009643
 step:   0.3051(harm=  0.3020)  dis= 0.00194  next Energy=   -59.121771 (dE=-0.637E-03)
 bond charge predicted
       N       E                     dE             d eps       ncg     rms          rms(c)
DAV:   1    -0.591228188135E+02   -0.43873E-02   -0.18692E-01  4488   0.321E+00    0.179E-01
DAV:   2    -0.591221685486E+02    0.65026E-03   -0.43365E-03  5400   0.476E-01    0.113E-01
DAV:   3    -0.591217790160E+02    0.38953E-03   -0.12730E-03  5136   0.225E-01    0.340E-02
DAV:   4    -0.591217746215E+02    0.43946E-05   -0.94183E-05  5480   0.692E-02    0.171E-02
DAV:   5    -0.591217722535E+02    0.23679E-05   -0.77776E-06  5408   0.198E-02    0.484E-03
DAV:   6    -0.591217720644E+02    0.18913E-06   -0.11347E-06  5568   0.759E-03    0.136E-03
DAV:   7    -0.591217720234E+02    0.40977E-07   -0.14232E-07  5580   0.267E-03    0.564E-04
DAV:   8    -0.591217720256E+02   -0.21648E-08   -0.13254E-08  3220   0.843E-04
   3 F= -.59121772E+02 E0= -.59114834E+02  d E =-.638530E-03
 curvature:  -0.15 expect dE=-0.325E-03 dE for cont linesearch -0.700E-08
 trial: gam= 0.51995 g(F)=  0.134E-02 g(S)=  0.814E-03 ort =-0.139E-04 (trialstep = 0.861E+00)
 search vector abs. value=  0.327E-02
 bond charge predicted
       N       E                     dE             d eps       ncg     rms          rms(c)
DAV:   1    -0.591230262840E+02   -0.12543E-02   -0.17840E-01  4968   0.310E+00    0.190E-01
DAV:   2    -0.591220383213E+02    0.98796E-03   -0.44237E-03  5380   0.484E-01    0.107E-01
DAV:   3    -0.591215708036E+02    0.46752E-03   -0.17342E-03  5408   0.244E-01    0.257E-02
DAV:   4    -0.591215596507E+02    0.11153E-04   -0.12411E-04  5340   0.766E-02    0.136E-02
DAV:   5    -0.591215574610E+02    0.21897E-05   -0.12752E-05  5844   0.216E-02    0.489E-03
DAV:   6    -0.591215573336E+02    0.12735E-06   -0.90784E-07  5340   0.758E-03    0.154E-03
DAV:   7    -0.591215573477E+02   -0.14047E-07   -0.26363E-07  5412   0.372E-03    0.652E-04
DAV:   8    -0.591215573500E+02   -0.23319E-08   -0.12972E-08  3256   0.890E-04
   4 F= -.59121557E+02 E0= -.59114942E+02  d E =0.214676E-03
 trial-energy change:    0.000215  1 .order    0.000217   -0.001849    0.002284
 step:   0.3853(harm=  0.3853)  dis= 0.00127  next Energy=   -59.122186 (dE=-0.414E-03)
 bond charge predicted
       N       E                     dE             d eps       ncg     rms          rms(c)
DAV:   1    -0.591226333399E+02   -0.10760E-02   -0.54553E-02  4968   0.172E+00    0.105E-01
DAV:   2    -0.591223335201E+02    0.29982E-03   -0.13647E-03  5380   0.268E-01    0.589E-02
DAV:   3    -0.591221908945E+02    0.14263E-03   -0.53044E-04  5416   0.135E-01    0.142E-02
DAV:   4    -0.591221876415E+02    0.32530E-05   -0.38213E-05  5360   0.425E-02    0.754E-03
DAV:   5    -0.591221871129E+02    0.52856E-06   -0.39851E-06  5840   0.120E-02    0.270E-03
DAV:   6    -0.591221872047E+02   -0.91744E-07   -0.28276E-07  5332   0.421E-03    0.833E-04
DAV:   7    -0.591221872558E+02   -0.51175E-07   -0.78764E-08  5240   0.203E-03    0.360E-04
DAV:   8    -0.591221872620E+02   -0.61384E-08   -0.39237E-09  2964   0.492E-04
   5 F= -.59122187E+02 E0= -.59115400E+02  d E =-.415236E-03
 curvature:  -0.29 expect dE=-0.319E-03 dE for cont linesearch -0.159E-08
 trial: gam= 0.49340 g(F)=  0.505E-03 g(S)=  0.582E-03 ort = 0.421E-05 (trialstep = 0.766E+00)
 search vector abs. value=  0.189E-02
 bond charge predicted
       N       E                     dE             d eps       ncg     rms          rms(c)
DAV:   1    -0.591241370110E+02   -0.19498E-02   -0.61598E-02  4480   0.169E+00    0.151E-01
DAV:   2    -0.591232251287E+02    0.91188E-03   -0.12714E-03  5124   0.235E-01    0.790E-02
DAV:   3    -0.591229029195E+02    0.32221E-03   -0.13571E-03  4848   0.197E-01    0.220E-02
DAV:   4    -0.591228941269E+02    0.87926E-05   -0.46966E-05  5136   0.468E-02    0.124E-02
DAV:   5    -0.591228900850E+02    0.40419E-05   -0.33071E-05  5732   0.314E-02    0.372E-03
DAV:   6    -0.591228896741E+02    0.41089E-06   -0.24952E-06  5552   0.104E-02    0.180E-03
DAV:   7    -0.591228895738E+02    0.10033E-06   -0.66155E-07  6104   0.491E-03    0.603E-04
DAV:   8    -0.591228895978E+02   -0.23993E-07   -0.34816E-08  4872   0.141E-03    0.259E-04
DAV:   9    -0.591228896114E+02   -0.13576E-07   -0.81415E-09  2824   0.672E-04    0.896E-05
DAV:  10    -0.591228896168E+02   -0.54549E-08   -0.13273E-09  2544   0.282E-04
   6 F= -.59122890E+02 E0= -.59116146E+02  d E =-.702355E-03
 trial-energy change:   -0.000702  1 .order   -0.000702   -0.000834   -0.000570
 step:   2.4197(harm=  2.4197)  dis= 0.00427  next Energy=   -59.123504 (dE=-0.132E-02)
 bond charge predicted
       N       E                     dE             d eps       ncg     rms          rms(c)
DAV:   1    -0.591293046079E+02   -0.64150E-02   -0.28563E-01  4480   0.363E+00    0.325E-01
DAV:   2    -0.591250637816E+02    0.42408E-02   -0.59002E-03  5124   0.507E-01    0.170E-01
DAV:   3    -0.591235656700E+02    0.14981E-02   -0.63338E-03  4836   0.425E-01    0.476E-02
DAV:   4    -0.591235255886E+02    0.40081E-04   -0.21918E-04  5128   0.101E-01    0.267E-02
DAV:   5    -0.591235076355E+02    0.17953E-04   -0.15611E-04  5716   0.683E-02    0.810E-03
DAV:   6    -0.591235058246E+02    0.18109E-05   -0.11828E-05  5572   0.226E-02    0.392E-03
DAV:   7    -0.591235055592E+02    0.26540E-06   -0.31410E-06  6100   0.107E-02    0.131E-03
DAV:   8    -0.591235056538E+02   -0.94625E-07   -0.16696E-07  5236   0.307E-03    0.568E-04
DAV:   9    -0.591235056949E+02   -0.41088E-07   -0.40745E-08  4704   0.145E-03    0.209E-04
DAV:  10    -0.591235057071E+02   -0.12155E-07   -0.44935E-09  2780   0.534E-04    0.830E-05
DAV:  11    -0.591235057146E+02   -0.75074E-08   -0.32586E-09  2544   0.366E-04
   7 F= -.59123506E+02 E0= -.59116825E+02  d E =-.131845E-02
 curvature:  -2.10 expect dE=-0.418E-02 dE for cont linesearch -0.293E-07
 trial: gam= 1.85015 g(F)=  0.118E-02 g(S)=  0.813E-03 ort = 0.513E-05 (trialstep = 0.244E+00)
 search vector abs. value=  0.847E-02
 bond charge predicted
       N       E                     dE             d eps       ncg     rms          rms(c)
DAV:   1    -0.591244387318E+02   -0.93302E-03   -0.29264E-02  4484   0.118E+00    0.105E-01
DAV:   2    -0.591240294300E+02    0.40930E-03   -0.79148E-04  5340   0.190E-01    0.547E-02
DAV:   3    -0.591238866952E+02    0.14273E-03   -0.51238E-04  4996   0.127E-01    0.147E-02
DAV:   4    -0.591238806767E+02    0.60185E-05   -0.26651E-05  5224   0.360E-02    0.709E-03
DAV:   5    -0.591238790025E+02    0.16742E-05   -0.64602E-06  5664   0.149E-02    0.229E-03
DAV:   6    -0.591238789310E+02    0.71540E-07   -0.58914E-07  5536   0.537E-03    0.826E-04
DAV:   7    -0.591238789212E+02    0.97386E-08   -0.14690E-07  5276   0.244E-03    0.429E-04
DAV:   8    -0.591238789427E+02   -0.21490E-07   -0.11792E-08  3224   0.102E-03    0.148E-04
DAV:   9    -0.591238789513E+02   -0.85947E-08   -0.54405E-09  2600   0.563E-04
   8 F= -.59123879E+02 E0= -.59117201E+02  d E =-.373237E-03
 trial-energy change:   -0.000373  1 .order   -0.000373   -0.000489   -0.000257
 step:   0.5134(harm=  0.5134)  dis= 0.00237  next Energy=   -59.124020 (dE=-0.514E-03)
 bond charge predicted
       N       E                     dE             d eps       ncg     rms          rms(c)
DAV:   1    -0.591246992515E+02   -0.82031E-03   -0.35470E-02  4488   0.130E+00    0.116E-01
DAV:   2    -0.591242030010E+02    0.49625E-03   -0.96193E-04  5336   0.210E-01    0.603E-02
DAV:   3    -0.591240300451E+02    0.17296E-03   -0.62177E-04  4996   0.139E-01    0.161E-02
DAV:   4    -0.591240227826E+02    0.72625E-05   -0.32317E-05  5220   0.396E-02    0.776E-03
DAV:   5    -0.591240207618E+02    0.20208E-05   -0.78714E-06  5668   0.165E-02    0.253E-03
DAV:   6    -0.591240206778E+02    0.84006E-07   -0.74880E-07  5492   0.600E-03    0.892E-04
DAV:   7    -0.591240206666E+02    0.11182E-07   -0.17383E-07  5284   0.267E-03    0.471E-04
DAV:   8    -0.591240206910E+02   -0.24403E-07   -0.14940E-08  3348   0.112E-03    0.163E-04
DAV:   9    -0.591240207008E+02   -0.97561E-08   -0.63067E-09  2636   0.611E-04
   9 F= -.59124021E+02 E0= -.59117346E+02  d E =-.514986E-03
 curvature:  -1.08 expect dE=-0.118E-02 dE for cont linesearch -0.172E-08
 trial: gam= 0.55429 g(F)=  0.100E-02 g(S)=  0.804E-04 ort = 0.366E-05 (trialstep = 0.298E+00)
 search vector abs. value=  0.369E-02
 bond charge predicted
       N       E                     dE             d eps       ncg     rms          rms(c)
DAV:   1    -0.591245033239E+02   -0.48263E-03   -0.19803E-02  4488   0.989E-01    0.776E-02
DAV:   2    -0.591242966510E+02    0.20667E-03   -0.52127E-04  5372   0.160E-01    0.418E-02
DAV:   3    -0.591242151601E+02    0.81491E-04   -0.25957E-04  5068   0.955E-02    0.963E-03
DAV:   4    -0.591242118701E+02    0.32900E-05   -0.15476E-05  5256   0.306E-02    0.546E-03
DAV:   5    -0.591242110768E+02    0.79334E-06   -0.37965E-06  5700   0.121E-02    0.208E-03
DAV:   6    -0.591242110140E+02    0.62778E-07   -0.29754E-07  5392   0.403E-03    0.784E-04
DAV:   7    -0.591242109873E+02    0.26674E-07   -0.13748E-07  5240   0.228E-03    0.345E-04
DAV:   8    -0.591242110015E+02   -0.14194E-07   -0.59443E-09  2876   0.663E-04    0.153E-04
DAV:   9    -0.591242110095E+02   -0.79497E-08   -0.35036E-09  2524   0.503E-04
  10 F= -.59124211E+02 E0= -.59117520E+02  d E =-.190309E-03
 trial-energy change:   -0.000190  1 .order   -0.000191   -0.000324   -0.000057
 step:   0.3619(harm=  0.3619)  dis= 0.00086  next Energy=   -59.124217 (dE=-0.197E-03)
 bond charge predicted
       N       E                     dE             d eps       ncg     rms          rms(c)
DAV:   1    -0.591242306699E+02   -0.19668E-04   -0.90909E-04  4504   0.212E-01    0.166E-02
DAV:   2    -0.591242212527E+02    0.94172E-05   -0.24092E-05  5376   0.344E-02    0.897E-03
DAV:   3    -0.591242174249E+02    0.38278E-05   -0.11892E-05  5076   0.205E-02    0.205E-03
DAV:   4    -0.591242172175E+02    0.20732E-06   -0.71083E-07  5256   0.654E-03    0.115E-03
DAV:   5    -0.591242171569E+02    0.60617E-07   -0.17431E-07  5712   0.259E-03    0.445E-04
DAV:   6    -0.591242171492E+02    0.76959E-08   -0.12478E-08  2876   0.868E-04
  11 F= -.59124217E+02 E0= -.59117523E+02  d E =-.196448E-03
 curvature:  -0.61 expect dE=-0.372E-03 dE for cont linesearch -0.545E-09
 trial: gam= 0.56132 g(F)=  0.510E-03 g(S)=  0.960E-04 ort = 0.181E-05 (trialstep = 0.311E+00)
 search vector abs. value=  0.177E-02
 bond charge predicted
       N       E                     dE             d eps       ncg     rms          rms(c)
DAV:   1    -0.591245468591E+02   -0.32970E-03   -0.10060E-02  4480   0.708E-01    0.552E-02
DAV:   2    -0.591244280770E+02    0.11878E-03   -0.19755E-04  5228   0.966E-02    0.293E-02
DAV:   3    -0.591243833227E+02    0.44754E-04   -0.17200E-04  4888   0.723E-02    0.815E-03
DAV:   4    -0.591243816326E+02    0.16901E-05   -0.11539E-05  5236   0.220E-02    0.344E-03
DAV:   5    -0.591243812229E+02    0.40967E-06   -0.14066E-06  5500   0.737E-03    0.111E-03
DAV:   6    -0.591243812027E+02    0.20220E-07   -0.11358E-07  5328   0.202E-03    0.479E-04
DAV:   7    -0.591243812140E+02   -0.11300E-07   -0.38988E-08  5248   0.129E-03    0.211E-04
DAV:   8    -0.591243812218E+02   -0.78423E-08   -0.69993E-09  2720   0.604E-04
  12 F= -.59124381E+02 E0= -.59117679E+02  d E =-.164073E-03
 trial-energy change:   -0.000164  1 .order   -0.000163   -0.000189   -0.000138
 step:   0.9707(harm=  1.1576)  dis= 0.00203  next Energy=   -59.124535 (dE=-0.318E-03)
 bond charge predicted
       N       E                     dE             d eps       ncg     rms          rms(c)
DAV:   1    -0.591253101700E+02   -0.92896E-03   -0.45273E-02  4480   0.150E+00    0.117E-01
DAV:   2    -0.591247733051E+02    0.53686E-03   -0.88917E-04  5220   0.205E-01    0.622E-02
DAV:   3    -0.591245717141E+02    0.20159E-03   -0.77662E-04  4888   0.154E-01    0.173E-02
DAV:   4    -0.591245646701E+02    0.70440E-05   -0.52032E-05  5228   0.468E-02    0.732E-03
DAV:   5    -0.591245628850E+02    0.17851E-05   -0.64171E-06  5532   0.157E-02    0.236E-03
DAV:   6    -0.591245628197E+02    0.65334E-07   -0.51441E-07  5320   0.429E-03    0.102E-03
DAV:   7    -0.591245628520E+02   -0.32348E-07   -0.18017E-07  5956   0.274E-03    0.456E-04
DAV:   8    -0.591245628728E+02   -0.20810E-07   -0.39791E-08  4848   0.132E-03    0.156E-04
DAV:   9    -0.591245628792E+02   -0.64199E-08   -0.32187E-09  2668   0.453E-04
  13 F= -.59124563E+02 E0= -.59117849E+02  d E =-.345730E-03
 curvature:  -1.61 expect dE=-0.109E-02 dE for cont linesearch -0.895E-05
 trial: gam= 0.96078 g(F)=  0.598E-03 g(S)=  0.830E-04 ort = 0.993E-04 (trialstep = 0.313E+00)
 search vector abs. value=  0.251E-02
 bond charge predicted
       N       E                     dE             d eps       ncg     rms          rms(c)
DAV:   1    -0.591247665825E+02   -0.20371E-03   -0.16485E-02  4504   0.957E-01    0.529E-02
DAV:   2    -0.591246914732E+02    0.75109E-04   -0.35505E-04  5364   0.134E-01    0.308E-02
DAV:   3    -0.591246514198E+02    0.40053E-04   -0.12958E-04  5268   0.703E-02    0.577E-03
DAV:   4    -0.591246507373E+02    0.68253E-06   -0.77441E-06  5208   0.225E-02    0.410E-03
DAV:   5    -0.591246504700E+02    0.26722E-06   -0.19308E-06  5504   0.102E-02    0.166E-03
DAV:   6    -0.591246504395E+02    0.30518E-07   -0.25426E-07  5316   0.404E-03    0.717E-04
DAV:   7    -0.591246504059E+02    0.33574E-07   -0.55011E-08  5116   0.158E-03    0.193E-04
DAV:   8    -0.591246504108E+02   -0.48346E-08   -0.22938E-09  2572   0.396E-04
  14 F= -.59124650E+02 E0= -.59117919E+02  d E =-.875315E-04
 trial-energy change:   -0.000088  1 .order   -0.000087   -0.000243    0.000068
 step:   0.2441(harm=  0.2441)  dis= 0.00133  next Energy=   -59.124658 (dE=-0.948E-04)
 bond charge predicted
       N       E                     dE             d eps       ncg     rms          rms(c)
DAV:   1    -0.591246633791E+02   -0.12973E-04   -0.79504E-04  4524   0.210E-01    0.116E-02
DAV:   2    -0.591246598036E+02    0.35756E-05   -0.17124E-05  5364   0.294E-02    0.675E-03
DAV:   3    -0.591246580193E+02    0.17843E-05   -0.62227E-06  5244   0.155E-02    0.126E-03
DAV:   4    -0.591246580415E+02   -0.22194E-07   -0.37976E-07  5224   0.497E-03    0.919E-04
DAV:   5    -0.591246580602E+02   -0.18686E-07   -0.91270E-08  5524   0.222E-03    0.383E-04
DAV:   6    -0.591246580690E+02   -0.88228E-08   -0.11006E-08  2608   0.874E-04
  15 F= -.59124658E+02 E0= -.59117930E+02  d E =-.951897E-04
 curvature:  -0.39 expect dE=-0.227E-04 dE for cont linesearch -0.199E-09
 trial: gam= 0.25907 g(F)=  0.540E-04 g(S)=  0.353E-05 ort =-0.113E-05 (trialstep = 0.299E+00)
 search vector abs. value=  0.225E-03
 bond charge predicted
       N       E                     dE             d eps       ncg     rms          rms(c)
DAV:   1    -0.591246836164E+02   -0.25556E-04   -0.10257E-03  4496   0.235E-01    0.160E-02
DAV:   2    -0.591246742732E+02    0.93432E-05   -0.20806E-05  5328   0.314E-02    0.835E-03
DAV:   3    -0.591246708434E+02    0.34298E-05   -0.14332E-05  5192   0.207E-02    0.237E-03
DAV:   4    -0.591246706405E+02    0.20290E-06   -0.10205E-06  5432   0.641E-03    0.103E-03
DAV:   5    -0.591246705659E+02    0.74631E-07   -0.13595E-07  5528   0.222E-03    0.307E-04
DAV:   6    -0.591246705614E+02    0.44561E-08   -0.10720E-08  3164   0.722E-04
  16 F= -.59124671E+02 E0= -.59117944E+02  d E =-.124924E-04
 trial-energy change:   -0.000012  1 .order   -0.000012   -0.000017   -0.000008
 step:   0.5547(harm=  0.5547)  dis= 0.00081  next Energy=   -59.124674 (dE=-0.159E-04)
 bond charge predicted
       N       E                     dE             d eps       ncg     rms          rms(c)
DAV:   1    -0.591246834246E+02   -0.12859E-04   -0.74828E-04  4512   0.201E-01    0.137E-02
DAV:   2    -0.591246766336E+02    0.67910E-05   -0.15143E-05  5328   0.268E-02    0.712E-03
DAV:   3    -0.591246741130E+02    0.25206E-05   -0.10435E-05  5204   0.177E-02    0.201E-03
DAV:   4    -0.591246739556E+02    0.15742E-06   -0.73816E-07  5436   0.545E-03    0.874E-04
DAV:   5    -0.591246738964E+02    0.59143E-07   -0.99390E-08  5460   0.190E-03    0.264E-04
DAV:   6    -0.591246738928E+02    0.35691E-08   -0.78618E-09  2940   0.621E-04
  17 F= -.59124674E+02 E0= -.59117948E+02  d E =-.158239E-04
 curvature:  -1.09 expect dE=-0.278E-04 dE for cont linesearch -0.326E-10
 trial: gam= 0.18595 g(F)=  0.183E-04 g(S)=  0.714E-05 ort =-0.820E-07 (trialstep = 0.350E+00)
 search vector abs. value=  0.332E-04
 bond charge predicted
       N       E                     dE             d eps       ncg     rms          rms(c)
DAV:   1    -0.591246781530E+02   -0.42566E-05   -0.39498E-04  4504   0.152E-01    0.791E-03
DAV:   2    -0.591246777302E+02    0.42280E-06   -0.12567E-05  5376   0.262E-02    0.481E-03
DAV:   3    -0.591246770526E+02    0.67753E-06   -0.22635E-06  5396   0.113E-02    0.168E-03
DAV:   4    -0.591246769902E+02    0.62405E-07   -0.41280E-07  5200   0.472E-03    0.972E-04
DAV:   5    -0.591246769860E+02    0.41989E-08   -0.69837E-08  5284   0.169E-03
  18 F= -.59124677E+02 E0= -.59117950E+02  d E =-.309320E-05
 trial-energy change:   -0.000003  1 .order   -0.000003   -0.000009    0.000003
 step:   0.2654(harm=  0.2584)  dis= 0.00009  next Energy=   -59.124677 (dE=-0.347E-05)
 bond charge predicted
       N       E                     dE             d eps       ncg     rms          rms(c)
DAV:   1    -0.591246774548E+02   -0.46458E-06   -0.22733E-05  4528   0.365E-02    0.190E-03
DAV:   2    -0.591246773969E+02    0.57910E-07   -0.72058E-07  5376   0.628E-03    0.116E-03
DAV:   3    -0.591246773482E+02    0.48716E-07   -0.12881E-07  5400   0.270E-03    0.411E-04
DAV:   4    -0.591246773439E+02    0.43117E-08   -0.22551E-08  3724   0.112E-03
  19 F= -.59124677E+02 E0= -.59117951E+02  d E =-.345104E-05
 curvature:  -0.17 expect dE=-0.124E-05 dE for cont linesearch -0.249E-08
 trial: gam= 0.31378 g(F)=  0.576E-05 g(S)=  0.162E-05 ort =-0.702E-06 (trialstep = 0.333E+00)
 search vector abs. value=  0.102E-04
 bond charge predicted
       N       E                     dE             d eps       ncg     rms          rms(c)
DAV:   1    -0.591246791780E+02   -0.18298E-05   -0.89057E-05  4516   0.704E-02    0.391E-03
DAV:   2    -0.591246789244E+02    0.25365E-06   -0.22010E-06  5860   0.110E-02    0.217E-03
DAV:   3    -0.591246788064E+02    0.11801E-06   -0.33995E-07  5604   0.367E-03    0.928E-04
DAV:   4    -0.591246787879E+02    0.18455E-07   -0.66446E-08  5452   0.162E-03    0.313E-04
DAV:   5    -0.591246787904E+02   -0.25134E-08   -0.10811E-08  2636   0.727E-04
  20 F= -.59124679E+02 E0= -.59117950E+02  d E =-.144655E-05
 trial-energy change:   -0.000001  1 .order   -0.000001   -0.000002   -0.000000
 step:   0.3891(harm=  0.4000)  dis= 0.00012  next Energy=   -59.124679 (dE=-0.148E-05)
 bond charge predicted
       N       E                     dE             d eps       ncg     rms          rms(c)
DAV:   1    -0.591246788388E+02   -0.50890E-07   -0.25013E-06  4584   0.118E-02    0.639E-04
DAV:   2    -0.591246788330E+02    0.57580E-08   -0.59988E-08  5348   0.183E-03
  21 F= -.59124679E+02 E0= -.59117950E+02  d E =-.148917E-05
 curvature:  -0.28 expect dE=-0.899E-06 dE for cont linesearch -0.473E-08
 trial: gam= 0.37317 g(F)=  0.222E-05 g(S)=  0.102E-05 ort = 0.417E-06 (trialstep = 0.344E+00)
 search vector abs. value=  0.497E-05
 bond charge predicted
       N       E                     dE             d eps       ncg     rms          rms(c)
DAV:   1    -0.591246798238E+02   -0.98498E-06   -0.41951E-05  4496   0.489E-02    0.279E-03
DAV:   2    -0.591246797262E+02    0.97547E-07   -0.10284E-06  5784   0.729E-03    0.164E-03
DAV:   3    -0.591246796386E+02    0.87634E-07   -0.26888E-07  5384   0.359E-03    0.459E-04
DAV:   4    -0.591246796330E+02    0.55961E-08   -0.34837E-08  4056   0.139E-03
  22 F= -.59124680E+02 E0= -.59117950E+02  d E =-.799962E-06
 trial-energy change:   -0.000001  1 .order   -0.000001   -0.000001   -0.000000
 step:   0.5200(harm=  0.5200)  dis= 0.00007  next Energy=   -59.124680 (dE=-0.882E-06)
 bond charge predicted
       N       E                     dE             d eps       ncg     rms          rms(c)
DAV:   1    -0.591246797917E+02   -0.15313E-06   -0.11001E-05  4488   0.251E-02    0.139E-03
DAV:   2    -0.591246797802E+02    0.11569E-07   -0.28372E-07  5784   0.385E-03    0.816E-04
DAV:   3    -0.591246797636E+02    0.16598E-07   -0.70049E-08  5332   0.188E-03    0.245E-04
DAV:   4    -0.591246797627E+02    0.85879E-09   -0.96131E-09  2644   0.749E-04
  23 F= -.59124680E+02 E0= -.59117950E+02  d E =-.929666E-06
 curvature:  -0.38 expect dE=-0.229E-05 dE for cont linesearch -0.155E-09
 trial: gam= 1.86240 g(F)=  0.547E-05 g(S)=  0.548E-06 ort = 0.449E-07 (trialstep = 0.805E-01)
 search vector abs. value=  0.234E-04
 bond charge predicted
       N       E                     dE             d eps       ncg     rms          rms(c)
DAV:   1    -0.591246802773E+02   -0.51373E-06   -0.10587E-05  4496   0.244E-02    0.104E-03
DAV:   2    -0.591246802576E+02    0.19677E-07   -0.15399E-07  5652   0.266E-03    0.599E-04
DAV:   3    -0.591246802397E+02    0.17908E-07   -0.28079E-08  3668   0.107E-03    0.180E-04
DAV:   4    -0.591246802365E+02    0.31730E-08   -0.42094E-09  2420   0.468E-04
  24 F= -.59124680E+02 E0= -.59117950E+02  d E =-.473827E-06
 ZBRENT: can't locate minimum, use default step
 trial-energy change:   -0.000000  1 .order   -0.000000   -0.000000   -0.000000
 step:   0.3222(harm=  1.5755)  dis= 0.00010  next Energy=   -59.124685 (dE=-0.481E-05)
 bond charge predicted
       N       E                     dE             d eps       ncg     rms          rms(c)
DAV:   1    -0.591246818742E+02   -0.16345E-05   -0.96089E-05  4496   0.735E-02    0.314E-03
DAV:   2    -0.591246816922E+02    0.18197E-06   -0.14197E-06  5676   0.808E-03    0.181E-03
DAV:   3    -0.591246815475E+02    0.14467E-06   -0.26308E-07  5208   0.323E-03    0.556E-04
DAV:   4    -0.591246815311E+02    0.16484E-07   -0.31061E-08  4208   0.121E-03    0.233E-04
DAV:   5    -0.591246815270E+02    0.40757E-08   -0.98889E-09  2492   0.620E-04
  25 F= -.59124682E+02 E0= -.59117952E+02  d E =-.176428E-05
 curvature:  -0.90 expect dE=-0.430E-05 dE for cont linesearch -0.951E-06
 ZBRENT: increasing intervall
 opt :   0.8054  next Energy=   -59.124684 (dE=-0.378E-05)
 bond charge predicted
       N       E                     dE             d eps       ncg     rms          rms(c)
DAV:   1    -0.591246849381E+02   -0.34070E-05   -0.38470E-04  4480   0.147E-01    0.630E-03
DAV:   2    -0.591246841907E+02    0.74734E-06   -0.56503E-06  5652   0.161E-02    0.362E-03
DAV:   3    -0.591246836272E+02    0.56356E-06   -0.10496E-06  5184   0.645E-03    0.111E-03
DAV:   4    -0.591246835709E+02    0.56299E-07   -0.12783E-07  5348   0.241E-03    0.463E-04
DAV:   5    -0.591246835601E+02    0.10798E-07   -0.34054E-08  4232   0.113E-03    0.193E-04
DAV:   6    -0.591246835603E+02   -0.18008E-09   -0.44032E-09  2460   0.498E-04
  26 F= -.59124684E+02 E0= -.59117953E+02  d E =-.379756E-05
 curvature:  -1.90 expect dE=-0.119E-04 dE for cont linesearch -0.101E-05
 ZBRENT: increasing intervall
 opt :   1.7719  next Energy=   -59.124686 (dE=-0.581E-05)
 bond charge predicted
       N       E                     dE             d eps       ncg     rms          rms(c)
DAV:   1    -0.591246908459E+02   -0.72858E-05   -0.15379E-03  4480   0.294E-01    0.126E-02
DAV:   2    -0.591246878688E+02    0.29771E-05   -0.22645E-05  5660   0.322E-02    0.724E-03
DAV:   3    -0.591246856712E+02    0.21976E-05   -0.41448E-06  5164   0.128E-02    0.222E-03
DAV:   4    -0.591246854621E+02    0.20904E-06   -0.51284E-07  5372   0.480E-03    0.918E-04
DAV:   5    -0.591246854300E+02    0.32144E-07   -0.14033E-07  5804   0.224E-03    0.400E-04
DAV:   6    -0.591246854291E+02    0.95497E-09   -0.14836E-08  2964   0.909E-04
  27 F= -.59124685E+02 E0= -.59117955E+02  d E =-.566634E-05
 curvature:  -3.78 expect dE=-0.773E-04 dE for cont linesearch -0.457E-07
 trial: gam= 3.30271 g(F)=  0.194E-04 g(S)=  0.998E-06 ort = 0.532E-06 (trialstep = 0.351E-01)
 search vector abs. value=  0.279E-03
 bond charge predicted
       N       E                     dE             d eps       ncg     rms          rms(c)
DAV:   1    -0.591246862509E+02   -0.82093E-06   -0.23778E-05  4520   0.371E-02    0.143E-03
DAV:   2    -0.591246862188E+02    0.32130E-07   -0.34649E-07  5848   0.388E-03    0.828E-04
DAV:   3    -0.591246861880E+02    0.30788E-07   -0.40897E-08  4588   0.128E-03    0.310E-04
DAV:   4    -0.591246861814E+02    0.65827E-08   -0.89677E-09  2464   0.624E-04
  28 F= -.59124686E+02 E0= -.59117956E+02  d E =-.752382E-06
 ZBRENT: can't locate minimum, use default step
 trial-energy change:   -0.000001  1 .order   -0.000001   -0.000001   -0.000001
 step:   0.1404(harm=  0.8281)  dis= 0.00014  next Energy=   -59.124695 (dE=-0.918E-05)
 bond charge predicted
       N       E                     dE             d eps       ncg     rms          rms(c)
DAV:   1    -0.591246888231E+02   -0.26351E-05   -0.21548E-04  4496   0.111E-01    0.431E-03
DAV:   2    -0.591246885539E+02    0.26921E-06   -0.31477E-06  5908   0.117E-02    0.253E-03
DAV:   3    -0.591246883030E+02    0.25092E-06   -0.39987E-07  5216   0.397E-03    0.945E-04
DAV:   4    -0.591246882606E+02    0.42421E-07   -0.79101E-08  5112   0.176E-03    0.335E-04
DAV:   5    -0.591246882535E+02    0.70647E-08   -0.13763E-08  2580   0.765E-04
  29 F= -.59124688E+02 E0= -.59117960E+02  d E =-.282445E-05
 curvature:  -1.29 expect dE=-0.187E-04 dE for cont linesearch -0.161E-05
 ZBRENT: increasing intervall
 opt :   0.3511  next Energy=   -59.124692 (dE=-0.621E-05)
 bond charge predicted
       N       E                     dE             d eps       ncg     rms          rms(c)
DAV:   1    -0.591246938920E+02   -0.56314E-05   -0.86245E-04  4480   0.223E-01    0.863E-03
DAV:   2    -0.591246928066E+02    0.10854E-05   -0.12520E-05  5876   0.234E-02    0.507E-03
DAV:   3    -0.591246918279E+02    0.97869E-06   -0.16095E-06  5232   0.795E-03    0.187E-03
DAV:   4    -0.591246916747E+02    0.15325E-06   -0.31092E-07  5156   0.351E-03    0.667E-04
DAV:   5    -0.591246916550E+02    0.19641E-07   -0.64910E-08  5140   0.153E-03    0.262E-04
DAV:   6    -0.591246916552E+02   -0.16621E-09   -0.72446E-09  2576   0.614E-04
  30 F= -.59124692E+02 E0= -.59117966E+02  d E =-.622613E-05
 curvature:  -2.72 expect dE=-0.265E-04 dE for cont linesearch -0.196E-05
 ZBRENT: increasing intervall
 opt :   0.7723  next Energy=   -59.124696 (dE=-0.103E-04)
 bond charge predicted
       N       E                     dE             d eps       ncg     rms          rms(c)
DAV:   1    -0.591247042415E+02   -0.12587E-04   -0.34483E-03  4480   0.446E-01    0.173E-02
DAV:   2    -0.591246999545E+02    0.42871E-05   -0.50140E-05  5876   0.468E-02    0.101E-02
DAV:   3    -0.591246961303E+02    0.38242E-05   -0.63335E-06  5220   0.158E-02    0.376E-03
DAV:   4    -0.591246955405E+02    0.58976E-06   -0.12555E-06  5144   0.701E-03    0.132E-03
DAV:   5    -0.591246954785E+02    0.62067E-07   -0.25162E-07  5388   0.301E-03    0.519E-04
DAV:   6    -0.591246954771E+02    0.14136E-08   -0.31557E-08  4400   0.121E-03
  31 F= -.59124695E+02 E0= -.59117975E+02  d E =-.100480E-04
 curvature:  -5.69 expect dE=-0.891E-04 dE for cont linesearch -0.481E-06
 ZBRENT: increasing intervall
 opt :   1.6148  next Energy=   -59.124692 (dE=-0.627E-05)
 bond charge predicted
       N       E                     dE             d eps       ncg     rms          rms(c)
DAV:   1    -0.591247259905E+02   -0.30512E-04   -0.13793E-02  4480   0.892E-01    0.345E-02
DAV:   2    -0.591247089232E+02    0.17067E-04   -0.20041E-04  5880   0.935E-02    0.203E-02
DAV:   3    -0.591246937411E+02    0.15182E-04   -0.25378E-05  5216   0.316E-02    0.753E-03
DAV:   4    -0.591246914381E+02    0.23030E-05   -0.50362E-06  5148   0.140E-02    0.265E-03
DAV:   5    -0.591246912217E+02    0.21639E-06   -0.10113E-06  5364   0.603E-03    0.104E-03
DAV:   6    -0.591246912125E+02    0.92414E-08   -0.12978E-07  5220   0.243E-03    0.445E-04
DAV:   7    -0.591246912228E+02   -0.10307E-07   -0.32992E-08  4852   0.115E-03    0.204E-04
DAV:   8    -0.591246912312E+02   -0.84267E-08   -0.28249E-09  2540   0.439E-04
  32 F= -.59124691E+02 E0= -.59117982E+02  d E =-.580216E-05
 curvature:  44.74 expect dE= 0.393E-02 dE for cont linesearch  0.326E-04
 ZBRENT: bracketing found
 ZBRENT: interpolating
 opt :   0.9863  next Energy=   -59.124696 (dE=-0.106E-04)
 bond charge predicted
       N       E                     dE             d eps       ncg     rms          rms(c)
DAV:   1    -0.591247148388E+02   -0.23616E-04   -0.76825E-03  4480   0.665E-01    0.258E-02
DAV:   2    -0.591247054587E+02    0.93801E-05   -0.11185E-04  5868   0.699E-02    0.151E-02
DAV:   3    -0.591246972055E+02    0.82532E-05   -0.14073E-05  5208   0.235E-02    0.561E-03
DAV:   4    -0.591246960073E+02    0.11982E-05   -0.27739E-06  5152   0.104E-02    0.197E-03
DAV:   5    -0.591246959299E+02    0.77458E-07   -0.56087E-07  5352   0.449E-03    0.773E-04
DAV:   6    -0.591246959195E+02    0.10379E-07   -0.71427E-08  5196   0.180E-03    0.331E-04
DAV:   7    -0.591246959179E+02    0.15800E-08   -0.16904E-08  3460   0.859E-04
  33 F= -.59124696E+02 E0= -.59117979E+02  d E =-.104889E-04
 curvature:  -0.71 expect dE=-0.186E-04 dE for cont linesearch -0.463E-09
 trial: gam= 1.49914 g(F)=  0.165E-04 g(S)=  0.967E-05 ort =-0.426E-06 (trialstep = 0.964E-01)
 search vector abs. value=  0.653E-03
 bond charge predicted
       N       E                     dE             d eps       ncg     rms          rms(c)
DAV:   1    -0.591246992682E+02   -0.33487E-05   -0.38795E-04  4480   0.150E-01    0.653E-03
DAV:   2    -0.591246986441E+02    0.62410E-06   -0.60460E-06  5724   0.163E-02    0.382E-03
DAV:   3    -0.591246981258E+02    0.51823E-06   -0.90590E-07  5236   0.605E-03    0.138E-03
DAV:   4    -0.591246980551E+02    0.70741E-07   -0.16078E-07  5168   0.257E-03    0.467E-04
DAV:   5    -0.591246980480E+02    0.70586E-08   -0.34228E-08  4096   0.115E-03
  34 F= -.59124698E+02 E0= -.59117983E+02  d E =-.213013E-05
 trial-energy change:   -0.000002  1 .order   -0.000002   -0.000002   -0.000002
 step:   0.2045(harm=  0.3066)  dis= 0.00027  next Energy=   -59.124699 (dE=-0.316E-05)
 bond charge predicted
       N       E                     dE             d eps       ncg     rms          rms(c)
DAV:   1    -0.591247010450E+02   -0.29899E-05   -0.48613E-04  4480   0.168E-01    0.728E-03
DAV:   2    -0.591247002310E+02    0.81394E-06   -0.75235E-06  5684   0.182E-02    0.426E-03
DAV:   3    -0.591246995697E+02    0.66132E-06   -0.11435E-06  5240   0.679E-03    0.153E-03
DAV:   4    -0.591246994810E+02    0.88715E-07   -0.20151E-07  5204   0.288E-03    0.523E-04
DAV:   5    -0.591246994729E+02    0.80904E-08   -0.45648E-08  5108   0.129E-03
  35 F= -.59124699E+02 E0= -.59117987E+02  d E =-.355499E-05
 curvature:  -3.00 expect dE=-0.267E-04 dE for cont linesearch -0.301E-06
 ZBRENT: increasing intervall
 opt :   0.4206  next Energy=   -59.124699 (dE=-0.328E-05)
 bond charge predicted
       N       E                     dE             d eps       ncg     rms          rms(c)
DAV:   1    -0.591247056163E+02   -0.61353E-05   -0.19450E-03  4480   0.336E-01    0.146E-02
DAV:   2    -0.591247022789E+02    0.33374E-05   -0.30176E-05  5684   0.365E-02    0.853E-03
DAV:   3    -0.591246996268E+02    0.26521E-05   -0.45351E-06  5236   0.135E-02    0.307E-03
DAV:   4    -0.591246992599E+02    0.36686E-06   -0.80929E-07  5204   0.576E-03    0.104E-03
DAV:   5    -0.591246992283E+02    0.31581E-07   -0.18079E-07  5752   0.257E-03    0.452E-04
DAV:   6    -0.591246992341E+02   -0.57257E-08   -0.20152E-08  3076   0.105E-03
  36 F= -.59124699E+02 E0= -.59117992E+02  d E =-.331615E-05
 curvature:   2.77 expect dE= 0.781E-04 dE for cont linesearch  0.484E-06
 ZBRENT: bracketing found
 ZBRENT: interpolating
 opt :   0.2976  next Energy=   -59.124700 (dE=-0.393E-05)
 bond charge predicted
       N       E                     dE             d eps       ncg     rms          rms(c)
DAV:   1    -0.591247020420E+02   -0.28136E-05   -0.63104E-04  4480   0.191E-01    0.834E-03
DAV:   2    -0.591247008952E+02    0.11468E-05   -0.98434E-06  5692   0.209E-02    0.488E-03
DAV:   3    -0.591247000299E+02    0.86529E-06   -0.14648E-06  5220   0.770E-03    0.176E-03
DAV:   4    -0.591246999035E+02    0.12639E-06   -0.26152E-07  5160   0.328E-03    0.596E-04
DAV:   5    -0.591246998939E+02    0.95454E-08   -0.58463E-08  5156   0.147E-03
  37 F= -.59124700E+02 E0= -.59117990E+02  d E =-.397603E-05
 curvature:  -2.16 expect dE=-0.268E-04 dE for cont linesearch -0.279E-08
 trial: gam= 0.44559 g(F)=  0.839E-05 g(S)=  0.403E-05 ort =-0.920E-06 (trialstep = 0.137E+00)
 search vector abs. value=  0.141E-03
 bond charge predicted
       N       E                     dE             d eps       ncg     rms          rms(c)
DAV:   1    -0.591247016829E+02   -0.17794E-05   -0.17006E-04  4480   0.984E-02    0.418E-03
DAV:   2    -0.591247015303E+02    0.15260E-06   -0.27850E-06  5900   0.114E-02    0.248E-03
DAV:   3    -0.591247013495E+02    0.18075E-06   -0.31352E-07  5308   0.366E-03    0.936E-04
DAV:   4    -0.591247013269E+02    0.22608E-07   -0.77417E-08  5376   0.174E-03    0.295E-04
DAV:   5    -0.591247013277E+02   -0.74942E-09   -0.65110E-09  2580   0.605E-04
  38 F= -.59124701E+02 E0= -.59117991E+02  d E =-.143374E-05
 trial-energy change:   -0.000001  1 .order   -0.000001   -0.000002   -0.000001
 step:   0.5161(harm=  0.5161)  dis= 0.00034  next Energy=   -59.124703 (dE=-0.310E-05)
 bond charge predicted
       N       E                     dE             d eps       ncg     rms          rms(c)
DAV:   1    -0.591247058289E+02   -0.45020E-05   -0.13075E-03  4480   0.273E-01    0.115E-02
DAV:   2    -0.591247045680E+02    0.12609E-05   -0.21162E-05  5904   0.315E-02    0.682E-03
DAV:   3    -0.591247030631E+02    0.15049E-05   -0.24857E-06  5312   0.102E-02    0.255E-03
DAV:   4    -0.591247028499E+02    0.21318E-06   -0.60484E-07  5584   0.482E-03    0.834E-04
DAV:   5    -0.591247028473E+02    0.26582E-08   -0.58538E-08  5320   0.168E-03
  39 F= -.59124703E+02 E0= -.59117991E+02  d E =-.295333E-05
 curvature:  -3.04 expect dE=-0.268E-04 dE for cont linesearch -0.350E-08
 trial: gam= 0.77039 g(F)=  0.661E-05 g(S)=  0.221E-05 ort =-0.403E-06 (trialstep = 0.213E+00)
 search vector abs. value=  0.920E-04
 bond charge predicted
       N       E                     dE             d eps       ncg     rms          rms(c)
DAV:   1    -0.591247046309E+02   -0.17810E-05   -0.28834E-04  4480   0.130E-01    0.431E-03
DAV:   2    -0.591247045653E+02    0.65602E-07   -0.41203E-06  5728   0.138E-02    0.261E-03
DAV:   3    -0.591247043565E+02    0.20875E-06   -0.40670E-07  5656   0.411E-03    0.996E-04
DAV:   4    -0.591247043367E+02    0.19852E-07   -0.94719E-08  5276   0.192E-03    0.400E-04
DAV:   5    -0.591247043409E+02   -0.42221E-08   -0.10753E-08  2732   0.834E-04
  40 F= -.59124704E+02 E0= -.59117991E+02  d E =-.149364E-05
 trial-energy change:   -0.000001  1 .order   -0.000002   -0.000002   -0.000001
 step:   0.7929(harm=  0.7929)  dis= 0.00050  next Energy=   -59.124706 (dE=-0.338E-05)
 bond charge predicted
       N       E                     dE             d eps       ncg     rms          rms(c)
DAV:   1    -0.591247082621E+02   -0.39254E-05   -0.21554E-03  4480   0.356E-01    0.119E-02
DAV:   2    -0.591247079932E+02    0.26892E-06   -0.30833E-05  5712   0.377E-02    0.718E-03
DAV:   3    -0.591247064448E+02    0.15484E-05   -0.29766E-06  5652   0.112E-02    0.274E-03
DAV:   4    -0.591247062473E+02    0.19749E-06   -0.68732E-07  5408   0.519E-03    0.108E-03
DAV:   5    -0.591247062461E+02    0.12124E-08   -0.91860E-08  5484   0.224E-03
  41 F= -.59124706E+02 E0= -.59117989E+02  d E =-.339879E-05
 curvature:  -4.28 expect dE=-0.665E-04 dE for cont linesearch -0.738E-07
 trial: gam= 1.52701 g(F)=  0.136E-04 g(S)=  0.193E-05 ort = 0.126E-05 (trialstep = 0.129E+00)
 search vector abs. value=  0.234E-03
 bond charge predicted
       N       E                     dE             d eps       ncg     rms          rms(c)
DAV:   1    -0.591247082097E+02   -0.19624E-05   -0.25648E-04  4480   0.125E-01    0.386E-03
DAV:   2    -0.591247082633E+02   -0.53616E-07   -0.36804E-06  5848   0.130E-02    0.240E-03
DAV:   3    -0.591247081243E+02    0.13895E-06   -0.31173E-07  5516   0.374E-03    0.946E-04
DAV:   4    -0.591247081116E+02    0.12739E-07   -0.69046E-08  5272   0.168E-03    0.357E-04
DAV:   5    -0.591247081159E+02   -0.43092E-08   -0.87508E-09  2644   0.737E-04
  42 F= -.59124708E+02 E0= -.59117991E+02  d E =-.186983E-05
 trial-energy change:   -0.000002  1 .order   -0.000002   -0.000002   -0.000002
 step:   0.4680(harm=  0.4680)  dis= 0.00046  next Energy=   -59.124710 (dE=-0.408E-05)
 bond charge predicted
       N       E                     dE             d eps       ncg     rms          rms(c)
DAV:   1    -0.591247111111E+02   -0.29996E-05   -0.17706E-03  4480   0.327E-01    0.103E-02
DAV:   2    -0.591247115982E+02   -0.48704E-06   -0.25632E-05  5820   0.343E-02    0.639E-03
DAV:   3    -0.591247106400E+02    0.95821E-06   -0.21149E-06  5416   0.985E-03    0.252E-03
DAV:   4    -0.591247105104E+02    0.12960E-06   -0.46961E-07  5608   0.439E-03    0.939E-04
DAV:   5    -0.591247105090E+02    0.13586E-08   -0.70965E-08  5348   0.191E-03
  43 F= -.59124711E+02 E0= -.59117994E+02  d E =-.426294E-05
 curvature:  -3.14 expect dE=-0.511E-04 dE for cont linesearch -0.734E-07
 trial: gam= 1.12592 g(F)=  0.110E-04 g(S)=  0.526E-05 ort = 0.234E-05 (trialstep = 0.145E+00)
 search vector abs. value=  0.318E-03
 bond charge predicted
       N       E                     dE             d eps       ncg     rms          rms(c)
DAV:   1    -0.591247130994E+02   -0.25890E-05   -0.44647E-04  4480   0.163E-01    0.507E-03
DAV:   2    -0.591247131204E+02   -0.20994E-07   -0.63298E-06  5356   0.174E-02    0.308E-03
DAV:   3    -0.591247128906E+02    0.22982E-06   -0.79786E-07  5180   0.568E-03    0.118E-03
DAV:   4    -0.591247128810E+02    0.95724E-08   -0.90846E-08  5492   0.210E-03
  44 F= -.59124713E+02 E0= -.59117997E+02  d E =-.237201E-05
 ZBRENT: can't locate minimum, use default step
 trial-energy change:   -0.000002  1 .order   -0.000003   -0.000003   -0.000002
 step:   0.5795(harm=  1.0120)  dis= 0.00063  next Energy=   -59.124720 (dE=-0.958E-05)
 bond charge predicted
       N       E                     dE             d eps       ncg     rms          rms(c)
DAV:   1    -0.591247188058E+02   -0.59152E-05   -0.40223E-03  4480   0.490E-01    0.153E-02
DAV:   2    -0.591247195905E+02   -0.78479E-06   -0.57359E-05  5296   0.525E-02    0.930E-03
DAV:   3    -0.591247176336E+02    0.19569E-05   -0.70587E-06  5192   0.170E-02    0.359E-03
DAV:   4    -0.591247174898E+02    0.14383E-06   -0.82122E-07  5820   0.629E-03    0.181E-03
DAV:   5    -0.591247174697E+02    0.20142E-07   -0.20803E-07  5700   0.286E-03    0.680E-04
DAV:   6    -0.591247174758E+02   -0.61925E-08   -0.25942E-08  3920   0.117E-03
  45 F= -.59124717E+02 E0= -.59118005E+02  d E =-.696684E-05
 curvature:  -6.39 expect dE=-0.747E-04 dE for cont linesearch -0.107E-05
 ZBRENT: increasing intervall
 opt :   1.4488  next Energy=   -59.124716 (dE=-0.558E-05)
 bond charge predicted
       N       E                     dE             d eps       ncg     rms          rms(c)
DAV:   1    -0.591247204325E+02   -0.29628E-05   -0.16097E-02  4480   0.980E-01    0.308E-02
DAV:   2    -0.591247238779E+02   -0.34455E-05   -0.22883E-04  5296   0.105E-01    0.185E-02
DAV:   3    -0.591247161415E+02    0.77364E-05   -0.28053E-05  5176   0.338E-02    0.713E-03
DAV:   4    -0.591247155217E+02    0.61981E-06   -0.32757E-06  5828   0.125E-02    0.360E-03
DAV:   5    -0.591247154080E+02    0.11367E-06   -0.81665E-07  5692   0.567E-03    0.136E-03
DAV:   6    -0.591247154127E+02   -0.47285E-08   -0.10942E-07  5312   0.232E-03    0.417E-04
DAV:   7    -0.591247154162E+02   -0.34422E-08   -0.15825E-08  3052   0.915E-04
  46 F= -.59124715E+02 E0= -.59118009E+02  d E =-.490718E-05
 curvature:   8.23 expect dE= 0.675E-03 dE for cont linesearch  0.254E-05
 ZBRENT: bracketing found
 ZBRENT: interpolating
 opt :   0.9489  next Energy=   -59.124719 (dE=-0.832E-05)
 bond charge predicted
       N       E                     dE             d eps       ncg     rms          rms(c)
DAV:   1    -0.591247196784E+02   -0.42657E-05   -0.53297E-03  4480   0.563E-01    0.177E-02
DAV:   2    -0.591247212764E+02   -0.15980E-05   -0.75776E-05  5292   0.604E-02    0.107E-02
DAV:   3    -0.591247187779E+02    0.24985E-05   -0.94185E-06  5152   0.196E-02    0.409E-03
DAV:   4    -0.591247185312E+02    0.24671E-06   -0.10812E-06  5824   0.722E-03    0.207E-03
DAV:   5    -0.591247184629E+02    0.68307E-07   -0.27054E-07  5680   0.326E-03    0.781E-04
DAV:   6    -0.591247184474E+02    0.15476E-07   -0.36003E-08  4848   0.133E-03    0.240E-04
DAV:   7    -0.591247184439E+02    0.35009E-08   -0.52008E-09  2604   0.520E-04
  47 F= -.59124718E+02 E0= -.59118008E+02  d E =-.793492E-05
 curvature:  -4.38 expect dE=-0.132E-03 dE for cont linesearch -0.557E-08
 trial: gam= 2.12424 g(F)=  0.201E-04 g(S)=  0.100E-04 ort =-0.636E-06 (trialstep = 0.665E-01)
 search vector abs. value=  0.146E-02
 bond charge predicted
       N       E                     dE             d eps       ncg     rms          rms(c)
DAV:   1    -0.591247205793E+02   -0.21318E-05   -0.41952E-04  4480   0.159E-01    0.554E-03
DAV:   2    -0.591247204868E+02    0.92472E-07   -0.60347E-06  5424   0.170E-02    0.324E-03
DAV:   3    -0.591247202330E+02    0.25379E-06   -0.93262E-07  5180   0.608E-03    0.109E-03
DAV:   4    -0.591247202311E+02    0.18938E-08   -0.10253E-07  5560   0.225E-03    0.580E-04
DAV:   5    -0.591247202380E+02   -0.68853E-08   -0.22040E-08  3176   0.103E-03
  48 F= -.59124720E+02 E0= -.59118010E+02  d E =-.179405E-05
 ZBRENT: can't locate minimum, use default step
 trial-energy change:   -0.000002  1 .order   -0.000002   -0.000002   -0.000002
 step:   0.2659(harm=  0.7569)  dis= 0.00061  next Energy=   -59.124729 (dE=-0.109E-04)
 bond charge predicted
       N       E                     dE             d eps       ncg     rms          rms(c)
DAV:   1    -0.591247274569E+02   -0.72258E-05   -0.37706E-03  4480   0.476E-01    0.165E-02
DAV:   2    -0.591247268277E+02    0.62929E-06   -0.54164E-05  5420   0.508E-02    0.967E-03
DAV:   3    -0.591247244384E+02    0.23892E-05   -0.83354E-06  5212   0.182E-02    0.328E-03
DAV:   4    -0.591247243189E+02    0.11950E-06   -0.92467E-07  5628   0.673E-03    0.174E-03
DAV:   5    -0.591247243151E+02    0.38672E-08   -0.22382E-07  5696   0.308E-03    0.746E-04
DAV:   6    -0.591247243259E+02   -0.10833E-07   -0.32094E-08  4496   0.130E-03    0.231E-04
DAV:   7    -0.591247243325E+02   -0.66182E-08   -0.59739E-09  2616   0.563E-04
  49 F= -.59124724E+02 E0= -.59118016E+02  d E =-.588858E-05
 curvature:  -9.51 expect dE=-0.220E-03 dE for cont linesearch -0.178E-05
 ZBRENT: increasing intervall
 opt :   0.6647  next Energy=   -59.124727 (dE=-0.862E-05)
 bond charge predicted
       N       E                     dE             d eps       ncg     rms          rms(c)
DAV:   1    -0.591247389487E+02   -0.14623E-04   -0.15085E-02  4480   0.952E-01    0.331E-02
DAV:   2    -0.591247367799E+02    0.21687E-05   -0.21700E-04  5404   0.102E-01    0.193E-02
DAV:   3    -0.591247271902E+02    0.95897E-05   -0.32849E-05  5216   0.361E-02    0.658E-03
DAV:   4    -0.591247266021E+02    0.58815E-06   -0.36835E-06  5640   0.134E-02    0.345E-03
DAV:   5    -0.591247265181E+02    0.83927E-07   -0.87765E-07  5712   0.611E-03    0.148E-03
DAV:   6    -0.591247265294E+02   -0.11285E-07   -0.13059E-07  5208   0.258E-03    0.458E-04
DAV:   7    -0.591247265416E+02   -0.12180E-07   -0.20233E-08  3484   0.105E-03    0.185E-04
DAV:   8    -0.591247265436E+02   -0.19743E-08   -0.84903E-09  2608   0.598E-04
  50 F= -.59124727E+02 E0= -.59118020E+02  d E =-.809965E-05
 curvature: -14.59 expect dE=-0.900E-03 dE for cont linesearch -0.147E-06
 trial: gam= 1.89060 g(F)=  0.546E-04 g(S)=  0.707E-05 ort =-0.383E-05 (trialstep = 0.516E-01)
 search vector abs. value=  0.528E-02
 bond charge predicted
       N       E                     dE             d eps       ncg     rms          rms(c)
DAV:   1    -0.591247302512E+02   -0.37096E-05   -0.93367E-04  4480   0.237E-01    0.835E-03
DAV:   2    -0.591247298289E+02    0.42227E-06   -0.12911E-05  5336   0.246E-02    0.482E-03
DAV:   3    -0.591247292017E+02    0.62726E-06   -0.22152E-06  5096   0.903E-03    0.154E-03
DAV:   4    -0.591247291951E+02    0.65377E-08   -0.21189E-07  5712   0.318E-03    0.831E-04
DAV:   5    -0.591247292065E+02   -0.11364E-07   -0.51257E-08  5216   0.145E-03    0.352E-04
DAV:   6    -0.591247292127E+02   -0.62005E-08   -0.60518E-09  2532   0.591E-04
  51 F= -.59124729E+02 E0= -.59118022E+02  d E =-.266910E-05
 ZBRENT: can't locate minimum, use default step
 trial-energy change:   -0.000003  1 .order   -0.000003   -0.000003   -0.000003
 step:   0.2064(harm=  1.0619)  dis= 0.00090  next Energy=   -59.124755 (dE=-0.289E-04)
 bond charge predicted
       N       E                     dE             d eps       ncg     rms          rms(c)
DAV:   1    -0.591247456634E+02   -0.16457E-04   -0.84023E-03  4480   0.711E-01    0.250E-02
DAV:   2    -0.591247422061E+02    0.34573E-05   -0.11613E-04  5308   0.738E-02    0.144E-02
DAV:   3    -0.591247363684E+02    0.58377E-05   -0.19859E-05  5084   0.271E-02    0.464E-03
DAV:   4    -0.591247361247E+02    0.24373E-06   -0.19054E-06  5728   0.954E-03    0.250E-03
DAV:   5    -0.591247361058E+02    0.18934E-07   -0.46202E-07  5656   0.436E-03    0.106E-03
DAV:   6    -0.591247361143E+02   -0.85172E-08   -0.64829E-08  5216   0.179E-03
  52 F= -.59124736E+02 E0= -.59118026E+02  d E =-.957069E-05
 curvature: -14.57 expect dE=-0.656E-03 dE for cont linesearch -0.492E-05
 ZBRENT: increasing intervall
 opt :   0.5161  next Energy=   -59.124746 (dE=-0.197E-04)
 bond charge predicted
       N       E                     dE             d eps       ncg     rms          rms(c)
DAV:   1    -0.591247826761E+02   -0.46570E-04   -0.33627E-02  4480   0.142E+00    0.501E-02
DAV:   2    -0.591247688814E+02    0.13795E-04   -0.46500E-04  5304   0.148E-01    0.289E-02
DAV:   3    -0.591247452901E+02    0.23591E-04   -0.79339E-05  5072   0.541E-02    0.929E-03
DAV:   4    -0.591247441279E+02    0.11622E-05   -0.76434E-06  5720   0.191E-02    0.500E-03
DAV:   5    -0.591247439303E+02    0.19766E-06   -0.18473E-06  5660   0.871E-03    0.212E-03
DAV:   6    -0.591247439184E+02    0.11931E-07   -0.26256E-07  5688   0.358E-03    0.668E-04
DAV:   7    -0.591247439453E+02   -0.26991E-07   -0.48858E-08  5184   0.159E-03    0.283E-04
DAV:   8    -0.591247439469E+02   -0.15511E-08   -0.65160E-09  2740   0.591E-04
  53 F= -.59124744E+02 E0= -.59118028E+02  d E =-.174033E-04
 curvature: -29.94 expect dE=-0.111E-02 dE for cont linesearch -0.206E-05
 ZBRENT: increasing intervall
 opt :   1.1353  next Energy=   -59.124741 (dE=-0.148E-04)
 bond charge predicted
       N       E                     dE             d eps       ncg     rms          rms(c)
DAV:   1    -0.591248966708E+02   -0.15273E-03   -0.13466E-01  4480   0.285E+00    0.101E-01
DAV:   2    -0.591248411406E+02    0.55530E-04   -0.18654E-03  5304   0.296E-01    0.579E-02
DAV:   3    -0.591247464810E+02    0.94660E-04   -0.31480E-04  5096   0.108E-01    0.187E-02
DAV:   4    -0.591247413967E+02    0.50843E-05   -0.30774E-05  5724   0.383E-02    0.100E-02
DAV:   5    -0.591247403696E+02    0.10271E-05   -0.73309E-06  5668   0.174E-02    0.426E-03
DAV:   6    -0.591247402274E+02    0.14225E-06   -0.10562E-06  5652   0.715E-03    0.134E-03
DAV:   7    -0.591247402818E+02   -0.54469E-07   -0.19030E-07  5188   0.315E-03    0.560E-04
DAV:   8    -0.591247402894E+02   -0.75190E-08   -0.31290E-08  4404   0.118E-03
  54 F= -.59124740E+02 E0= -.59118014E+02  d E =-.137458E-04
 curvature:  37.41 expect dE= 0.313E-02 dE for cont linesearch  0.442E-05
 ZBRENT: bracketing found
 ZBRENT: interpolating
 opt :   0.7841  next Energy=   -59.124746 (dE=-0.200E-04)
 bond charge predicted
       N       E                     dE             d eps       ncg     rms          rms(c)
DAV:   1    -0.591247961217E+02   -0.55840E-04   -0.43341E-02  4480   0.161E+00    0.567E-02
DAV:   2    -0.591247798194E+02    0.16302E-04   -0.59811E-04  5336   0.168E-01    0.329E-02
DAV:   3    -0.591247486948E+02    0.31125E-04   -0.10454E-04  5068   0.619E-02    0.105E-02
DAV:   4    -0.591247468000E+02    0.18948E-05   -0.97816E-06  5684   0.217E-02    0.567E-03
DAV:   5    -0.591247462538E+02    0.54622E-06   -0.24278E-06  5624   0.996E-03    0.241E-03
DAV:   6    -0.591247461301E+02    0.12367E-06   -0.33304E-07  5552   0.405E-03    0.759E-04
DAV:   7    -0.591247460972E+02    0.32901E-07   -0.64178E-08  5204   0.178E-03    0.320E-04
DAV:   8    -0.591247461002E+02   -0.29754E-08   -0.82915E-09  2856   0.671E-04
  55 F= -.59124746E+02 E0= -.59118026E+02  d E =-.195566E-04
 curvature: -21.61 expect dE=-0.103E-02 dE for cont linesearch -0.544E-08
 trial: gam= 0.42614 g(F)=  0.307E-04 g(S)=  0.167E-04 ort =-0.115E-05 (trialstep = 0.198E+00)
 search vector abs. value=  0.100E-02
 bond charge predicted
       N       E                     dE             d eps       ncg     rms          rms(c)
DAV:   1    -0.591247553101E+02   -0.92129E-05   -0.30365E-03  4480   0.429E-01    0.136E-02
DAV:   2    -0.591247541657E+02    0.11444E-05   -0.41524E-05  5416   0.447E-02    0.829E-03
DAV:   3    -0.591247522791E+02    0.18866E-05   -0.71025E-06  5268   0.165E-02    0.283E-03
DAV:   4    -0.591247522346E+02    0.44543E-07   -0.66071E-07  5636   0.570E-03    0.161E-03
DAV:   5    -0.591247522349E+02   -0.31696E-09   -0.14879E-07  5640   0.258E-03    0.635E-04
DAV:   6    -0.591247522382E+02   -0.32769E-08   -0.19251E-08  2948   0.106E-03
  56 F= -.59124752E+02 E0= -.59118030E+02  d E =-.613793E-05
 trial-energy change:   -0.000006  1 .order   -0.000007   -0.000009   -0.000004
 step:   0.3322(harm=  0.3322)  dis= 0.00076  next Energy=   -59.124754 (dE=-0.780E-05)
 bond charge predicted
       N       E                     dE             d eps       ncg     rms          rms(c)
DAV:   1    -0.591247546082E+02   -0.23733E-05   -0.13890E-03  4480   0.290E-01    0.920E-03
DAV:   2    -0.591247540183E+02    0.58988E-06   -0.18975E-05  5432   0.302E-02    0.558E-03
DAV:   3    -0.591247531413E+02    0.87697E-06   -0.32272E-06  5272   0.111E-02    0.191E-03
DAV:   4    -0.591247531260E+02    0.15312E-07   -0.30089E-07  5656   0.384E-03    0.108E-03
DAV:   5    -0.591247531307E+02   -0.46934E-08   -0.66971E-08  5544   0.174E-03
  57 F= -.59124753E+02 E0= -.59118029E+02  d E =-.703050E-05
 curvature:  -3.55 expect dE=-0.114E-03 dE for cont linesearch -0.257E-08
 trial: gam= 0.71548 g(F)=  0.308E-04 g(S)=  0.142E-05 ort =-0.853E-06 (trialstep = 0.225E+00)
 search vector abs. value=  0.545E-03
 bond charge predicted
       N       E                     dE             d eps       ncg     rms          rms(c)
DAV:   1    -0.591247599990E+02   -0.68729E-05   -0.20163E-03  4480   0.356E-01    0.111E-02
DAV:   2    -0.591247596588E+02    0.34017E-06   -0.26935E-05  5504   0.354E-02    0.682E-03
DAV:   3    -0.591247585386E+02    0.11202E-05   -0.34129E-06  5324   0.115E-02    0.237E-03
DAV:   4    -0.591247584789E+02    0.59698E-07   -0.41939E-07  5644   0.432E-03    0.105E-03
DAV:   5    -0.591247584875E+02   -0.85879E-08   -0.79352E-08  5420   0.183E-03
  58 F= -.59124758E+02 E0= -.59118036E+02  d E =-.535678E-05
 trial-energy change:   -0.000005  1 .order   -0.000006   -0.000007   -0.000004
 step:   0.5351(harm=  0.5351)  dis= 0.00078  next Energy=   -59.124762 (dE=-0.845E-05)
 bond charge predicted
       N       E                     dE             d eps       ncg     rms          rms(c)
DAV:   1    -0.591247638943E+02   -0.54154E-05   -0.38361E-03  4480   0.491E-01    0.154E-02
DAV:   2    -0.591247632989E+02    0.59539E-06   -0.51372E-05  5496   0.489E-02    0.942E-03
DAV:   3    -0.591247611736E+02    0.21253E-05   -0.64861E-06  5312   0.159E-02    0.328E-03
DAV:   4    -0.591247610497E+02    0.12391E-06   -0.80301E-07  5672   0.597E-03    0.145E-03
DAV:   5    -0.591247610570E+02   -0.73017E-08   -0.14993E-07  5456   0.251E-03    0.651E-04
DAV:   6    -0.591247610690E+02   -0.12040E-07   -0.24312E-08  3580   0.111E-03    0.182E-04
DAV:   7    -0.591247610723E+02   -0.32553E-08   -0.46269E-09  2580   0.503E-04
  59 F= -.59124761E+02 E0= -.59118041E+02  d E =-.794158E-05
 curvature:  -4.62 expect dE=-0.111E-03 dE for cont linesearch -0.116E-08
 trial: gam= 0.67740 g(F)=  0.138E-04 g(S)=  0.102E-04 ort = 0.370E-06 (trialstep = 0.287E+00)
 search vector abs. value=  0.275E-03
 bond charge predicted
       N       E                     dE             d eps       ncg     rms          rms(c)
DAV:   1    -0.591247670433E+02   -0.59743E-05   -0.16172E-03  4480   0.319E-01    0.112E-02
DAV:   2    -0.591247662047E+02    0.83859E-06   -0.23464E-05  5800   0.343E-02    0.653E-03
DAV:   3    -0.591247651851E+02    0.10196E-05   -0.43489E-06  5096   0.132E-02    0.207E-03
DAV:   4    -0.591247651745E+02    0.10577E-07   -0.43258E-07  5284   0.470E-03    0.116E-03
DAV:   5    -0.591247651917E+02   -0.17189E-07   -0.97338E-08  5440   0.191E-03    0.470E-04
DAV:   6    -0.591247651994E+02   -0.76500E-08   -0.99802E-09  2792   0.735E-04
  60 F= -.59124765E+02 E0= -.59118047E+02  d E =-.412707E-05
 trial-energy change:   -0.000004  1 .order   -0.000005   -0.000007   -0.000004
 step:   0.6012(harm=  0.6012)  dis= 0.00071  next Energy=   -59.124768 (dE=-0.727E-05)
 bond charge predicted
       N       E                     dE             d eps       ncg     rms          rms(c)
DAV:   1    -0.591247692689E+02   -0.40772E-05   -0.19405E-03  4480   0.349E-01    0.123E-02
DAV:   2    -0.591247682534E+02    0.10155E-05   -0.28159E-05  5800   0.375E-02    0.716E-03
DAV:   3    -0.591247670206E+02    0.12328E-05   -0.52402E-06  5104   0.145E-02    0.227E-03
DAV:   4    -0.591247670045E+02    0.16182E-07   -0.51914E-07  5284   0.515E-03    0.127E-03
DAV:   5    -0.591247670228E+02   -0.18344E-07   -0.11693E-07  5452   0.210E-03    0.515E-04
DAV:   6    -0.591247670309E+02   -0.80554E-08   -0.11974E-08  2920   0.805E-04
  61 F= -.59124767E+02 E0= -.59118051E+02  d E =-.595856E-05
 curvature:  -3.41 expect dE=-0.472E-04 dE for cont linesearch -0.146E-10
 trial: gam= 0.61104 g(F)=  0.110E-04 g(S)=  0.279E-05 ort = 0.343E-07 (trialstep = 0.350E+00)
 search vector abs. value=  0.116E-03
 bond charge predicted
       N       E                     dE             d eps       ncg     rms          rms(c)
DAV:   1    -0.591247714171E+02   -0.43943E-05   -0.10083E-03  4480   0.255E-01    0.896E-03
DAV:   2    -0.591247704357E+02    0.98134E-06   -0.14679E-05  5764   0.274E-02    0.508E-03
DAV:   3    -0.591247698678E+02    0.56796E-06   -0.36698E-06  5296   0.118E-02    0.161E-03
DAV:   4    -0.591247698793E+02   -0.11567E-07   -0.35854E-07  5232   0.429E-03    0.100E-03
DAV:   5    -0.591247699068E+02   -0.27409E-07   -0.63440E-08  5632   0.160E-03    0.392E-04
DAV:   6    -0.591247699162E+02   -0.94906E-08   -0.47134E-09  2576   0.544E-04
  62 F= -.59124770E+02 E0= -.59118056E+02  d E =-.288538E-05
 trial-energy change:   -0.000003  1 .order   -0.000003   -0.000005   -0.000001
 step:   0.4343(harm=  0.4343)  dis= 0.00035  next Energy=   -59.124770 (dE=-0.301E-05)
 bond charge predicted
       N       E                     dE             d eps       ncg     rms          rms(c)
DAV:   1    -0.591247700986E+02   -0.19189E-06   -0.58760E-05  4496   0.616E-02    0.214E-03
DAV:   2    -0.591247700357E+02    0.62969E-07   -0.84917E-07  5784   0.657E-03    0.121E-03
DAV:   3    -0.591247700178E+02    0.17894E-07   -0.20756E-07  5292   0.281E-03    0.384E-04
DAV:   4    -0.591247700258E+02   -0.80490E-08   -0.17943E-08  2904   0.101E-03
  63 F= -.59124770E+02 E0= -.59118056E+02  d E =-.299497E-05
 curvature:  -1.82 expect dE=-0.135E-04 dE for cont linesearch -0.282E-09
 trial: gam= 0.53405 g(F)=  0.685E-05 g(S)=  0.565E-06 ort =-0.134E-06 (trialstep = 0.367E+00)
 search vector abs. value=  0.405E-04
 bond charge predicted
       N       E                     dE             d eps       ncg     rms          rms(c)
DAV:   1    -0.591247717676E+02   -0.17499E-05   -0.36789E-04  4480   0.158E-01    0.535E-03
DAV:   2    -0.591247715501E+02    0.21750E-06   -0.57929E-06  5804   0.168E-02    0.321E-03
DAV:   3    -0.591247713601E+02    0.18999E-06   -0.95609E-07  5224   0.645E-03    0.927E-04
DAV:   4    -0.591247713804E+02   -0.20251E-07   -0.89040E-08  5264   0.227E-03    0.509E-04
DAV:   5    -0.591247713976E+02   -0.17168E-07   -0.15374E-08  2940   0.955E-04    0.192E-04
DAV:   6    -0.591247714045E+02   -0.69667E-08   -0.39516E-09  2552   0.468E-04
  64 F= -.59124771E+02 E0= -.59118059E+02  d E =-.137870E-05
 trial-energy change:   -0.000001  1 .order   -0.000001   -0.000003    0.000000
 step:   0.3600(harm=  0.3591)  dis= 0.00020  next Energy=   -59.124771 (dE=-0.138E-05)
 bond charge predicted
       N       E                     dE             d eps       ncg     rms          rms(c)
DAV:   1    -0.591247714102E+02   -0.12654E-07   -0.12631E-07  4600   0.291E-03    0.111E-04
DAV:   2    -0.591247714099E+02    0.32014E-09   -0.18938E-09  2432   0.334E-04
  65 F= -.59124771E+02 E0= -.59118059E+02  d E =-.138406E-05
 curvature:  -0.98 expect dE=-0.400E-05 dE for cont linesearch -0.145E-09
 trial: gam= 0.54675 g(F)=  0.131E-05 g(S)=  0.279E-05 ort =-0.776E-07 (trialstep = 0.365E+00)
 search vector abs. value=  0.161E-04
 bond charge predicted
       N       E                     dE             d eps       ncg     rms          rms(c)
DAV:   1    -0.591247731725E+02   -0.17623E-05   -0.12947E-04  4480   0.917E-02    0.401E-03
DAV:   2    -0.591247727256E+02    0.44692E-06   -0.22179E-06  5708   0.102E-02    0.230E-03
DAV:   3    -0.591247724999E+02    0.22575E-06   -0.77645E-07  5252   0.529E-03    0.630E-04
DAV:   4    -0.591247725038E+02   -0.39850E-08   -0.51813E-08  5136   0.173E-03
  66 F= -.59124773E+02 E0= -.59118059E+02  d E =-.109394E-05
 trial-energy change:   -0.000001  1 .order   -0.000001   -0.000001   -0.000001
 step:   0.9914(harm=  0.9914)  dis= 0.00030  next Energy=   -59.124773 (dE=-0.201E-05)
 bond charge predicted
       N       E                     dE             d eps       ncg     rms          rms(c)
DAV:   1    -0.591247748879E+02   -0.23881E-05   -0.37983E-04  4480   0.157E-01    0.690E-03
DAV:   2    -0.591247736750E+02    0.12130E-05   -0.65693E-06  5716   0.175E-02    0.396E-03
DAV:   3    -0.591247730436E+02    0.63141E-06   -0.23055E-06  5248   0.915E-03    0.110E-03
DAV:   4    -0.591247730425E+02    0.10498E-08   -0.15700E-07  5136   0.302E-03    0.651E-04
DAV:   5    -0.591247730401E+02    0.23902E-08   -0.43297E-08  5020   0.140E-03
  67 F= -.59124773E+02 E0= -.59118059E+02  d E =-.163022E-05
 curvature:  -1.97 expect dE=-0.246E-04 dE for cont linesearch -0.395E-08
 trial: gam= 3.10217 g(F)=  0.110E-04 g(S)=  0.145E-05 ort =-0.180E-06 (trialstep = 0.475E-01)
 search vector abs. value=  0.166E-03
 bond charge predicted
       N       E                     dE             d eps       ncg     rms          rms(c)
DAV:   1    -0.591247736646E+02   -0.62208E-06   -0.20930E-05  4528   0.370E-02    0.160E-03
DAV:   2    -0.591247735923E+02    0.72254E-07   -0.34750E-07  5816   0.392E-03    0.904E-04
DAV:   3    -0.591247735606E+02    0.31713E-07   -0.97772E-08  5132   0.182E-03    0.208E-04
DAV:   4    -0.591247735646E+02   -0.39513E-08   -0.43929E-09  2456   0.514E-04
  68 F= -.59124774E+02 E0= -.59118059E+02  d E =-.524459E-06
 ZBRENT: can't locate minimum, use default step
 trial-energy change:   -0.000001  1 .order   -0.000001   -0.000001   -0.000001
 step:   0.1900(harm=  0.6529)  dis= 0.00018  next Energy=   -59.124777 (dE=-0.389E-05)
 bond charge predicted
       N       E                     dE             d eps       ncg     rms          rms(c)
DAV:   1    -0.591247756875E+02   -0.21269E-05   -0.18811E-04  4480   0.111E-01    0.480E-03
DAV:   2    -0.591247751440E+02    0.54357E-06   -0.31238E-06  5824   0.118E-02    0.269E-03
DAV:   3    -0.591247748669E+02    0.27707E-06   -0.89245E-07  5152   0.549E-03    0.625E-04
DAV:   4    -0.591247748753E+02   -0.84069E-08   -0.44897E-08  5048   0.156E-03
  69 F= -.59124775E+02 E0= -.59118059E+02  d E =-.183518E-05
 curvature:  -1.89 expect dE=-0.154E-04 dE for cont linesearch -0.820E-06
 ZBRENT: increasing intervall
 opt :   0.4750  next Energy=   -59.124777 (dE=-0.353E-05)
 bond charge predicted
       N       E                     dE             d eps       ncg     rms          rms(c)
DAV:   1    -0.591247794914E+02   -0.46245E-05   -0.75200E-04  4480   0.222E-01    0.960E-03
DAV:   2    -0.591247774157E+02    0.20757E-05   -0.12484E-05  5796   0.235E-02    0.539E-03
DAV:   3    -0.591247763079E+02    0.11078E-05   -0.35692E-06  5184   0.110E-02    0.125E-03
DAV:   4    -0.591247763141E+02   -0.62100E-08   -0.18163E-07  5288   0.313E-03    0.646E-04
DAV:   5    -0.591247763191E+02   -0.49731E-08   -0.36231E-08  4684   0.127E-03
  70 F= -.59124776E+02 E0= -.59118060E+02  d E =-.327900E-05
 curvature:  -3.90 expect dE=-0.414E-04 dE for cont linesearch -0.171E-06
 ZBRENT: extrapolating
 opt :   0.6077  next Energy=   -59.124776 (dE=-0.346E-05)
 bond charge predicted
       N       E                     dE             d eps       ncg     rms          rms(c)
DAV:   1    -0.591247771620E+02   -0.84790E-06   -0.16321E-04  4488   0.103E-01    0.447E-03
DAV:   2    -0.591247766829E+02    0.47919E-06   -0.26941E-06  5808   0.109E-02    0.251E-03
DAV:   3    -0.591247764410E+02    0.24184E-06   -0.77036E-07  5176   0.510E-03    0.578E-04
DAV:   4    -0.591247764494E+02   -0.84165E-08   -0.37295E-08  4708   0.143E-03
  71 F= -.59124776E+02 E0= -.59118059E+02  d E =-.340932E-05
 curvature:  -4.09 expect dE=-0.631E-04 dE for cont linesearch -0.237E-08
 trial: gam= 1.10532 g(F)=  0.109E-04 g(S)=  0.449E-05 ort = 0.311E-06 (trialstep = 0.121E+00)
 search vector abs. value=  0.219E-03
 bond charge predicted
       N       E                     dE             d eps       ncg     rms          rms(c)
DAV:   1    -0.591247788393E+02   -0.23983E-05   -0.18003E-04  4480   0.110E-01    0.447E-03
DAV:   2    -0.591247784061E+02    0.43321E-06   -0.27890E-06  5552   0.109E-02    0.246E-03
DAV:   3    -0.591247782353E+02    0.17082E-06   -0.65894E-07  5160   0.468E-03    0.668E-04
DAV:   4    -0.591247782461E+02   -0.10844E-07   -0.27650E-08  3532   0.124E-03    0.318E-04
DAV:   5    -0.591247782565E+02   -0.10349E-07   -0.13746E-08  2492   0.756E-04    0.105E-04
DAV:   6    -0.591247782565E+02   -0.12278E-10   -0.19345E-09  2420   0.366E-04
  72 F= -.59124778E+02 E0= -.59118060E+02  d E =-.180705E-05
 ZBRENT: can't locate minimum, use default step
 trial-energy change:   -0.000002  1 .order   -0.000002   -0.000002   -0.000002
 step:   0.4840(harm=  1.1216)  dis= 0.00059  next Energy=   -59.124785 (dE=-0.884E-05)
 bond charge predicted
       N       E                     dE             d eps       ncg     rms          rms(c)
DAV:   1    -0.591247880109E+02   -0.97544E-05   -0.16217E-03  4480   0.329E-01    0.134E-02
DAV:   2    -0.591247842761E+02    0.37349E-05   -0.25077E-05  5508   0.325E-02    0.733E-03
DAV:   3    -0.591247825341E+02    0.17420E-05   -0.57858E-06  5088   0.138E-02    0.196E-03
DAV:   4    -0.591247825241E+02    0.99467E-08   -0.26204E-07  5372   0.361E-03    0.918E-04
DAV:   5    -0.591247825407E+02   -0.16519E-07   -0.74106E-08  5420   0.170E-03    0.308E-04
DAV:   6    -0.591247825431E+02   -0.24261E-08   -0.69592E-09  2636   0.644E-04
  73 F= -.59124783E+02 E0= -.59118062E+02  d E =-.609365E-05
 curvature:  -4.64 expect dE=-0.344E-04 dE for cont linesearch -0.188E-05
 ZBRENT: increasing intervall
 opt :   1.2100  next Energy=   -59.124786 (dE=-0.958E-05)
 bond charge predicted
       N       E                     dE             d eps       ncg     rms          rms(c)
DAV:   1    -0.591248082473E+02   -0.25707E-04   -0.64885E-03  4480   0.659E-01    0.268E-02
DAV:   2    -0.591247934090E+02    0.14838E-04   -0.10039E-04  5508   0.651E-02    0.147E-02
DAV:   3    -0.591247862177E+02    0.71913E-05   -0.23117E-05  5056   0.277E-02    0.392E-03
DAV:   4    -0.591247860661E+02    0.15159E-06   -0.10471E-06  5376   0.721E-03    0.183E-03
DAV:   5    -0.591247860779E+02   -0.11790E-07   -0.29476E-07  5560   0.340E-03    0.615E-04
DAV:   6    -0.591247860807E+02   -0.28281E-08   -0.30287E-08  4036   0.129E-03
  74 F= -.59124786E+02 E0= -.59118060E+02  d E =-.963125E-05
 curvature:  -8.61 expect dE=-0.141E-03 dE for cont linesearch -0.188E-08
 trial: gam= 1.16547 g(F)=  0.117E-04 g(S)=  0.460E-05 ort = 0.219E-06 (trialstep = 0.236E+00)
 search vector abs. value=  0.315E-03
 bond charge predicted
       N       E                     dE             d eps       ncg     rms          rms(c)
DAV:   1    -0.591247917140E+02   -0.56361E-05   -0.10580E-03  4480   0.265E-01    0.105E-02
DAV:   2    -0.591247893980E+02    0.23159E-05   -0.16905E-05  5500   0.278E-02    0.598E-03
DAV:   3    -0.591247882294E+02    0.11687E-05   -0.45259E-06  5532   0.125E-02    0.183E-03
DAV:   4    -0.591247882017E+02    0.27653E-07   -0.31513E-07  5388   0.380E-03    0.891E-04
DAV:   5    -0.591247882003E+02    0.14199E-08   -0.74029E-08  5652   0.163E-03
  75 F= -.59124788E+02 E0= -.59118061E+02  d E =-.211961E-05
 trial-energy change:   -0.000002  1 .order   -0.000002   -0.000004   -0.000001
 step:   0.3423(harm=  0.2877)  dis= 0.00050  next Energy=   -59.124788 (dE=-0.226E-05)
 bond charge predicted
       N       E                     dE             d eps       ncg     rms          rms(c)
DAV:   1    -0.591247888401E+02   -0.63836E-06   -0.21395E-04  4480   0.119E-01    0.472E-03
DAV:   2    -0.591247883263E+02    0.51380E-06   -0.33990E-06  5512   0.124E-02    0.270E-03
DAV:   3    -0.591247880897E+02    0.23657E-06   -0.91286E-07  5568   0.560E-03    0.828E-04
DAV:   4    -0.591247880918E+02   -0.20789E-08   -0.64457E-08  5228   0.171E-03
  76 F= -.59124788E+02 E0= -.59118061E+02  d E =-.201110E-05
 curvature:   0.33 expect dE= 0.452E-05 dE for cont linesearch  0.822E-08
 trial: gam= 0.00000 g(F)=  0.126E-04 g(S)=  0.102E-05 ort =-0.280E-05 (trialstep = 0.257E+00)
 search vector abs. value=  0.137E-04
 bond charge predicted
       N       E                     dE             d eps       ncg     rms          rms(c)
DAV:   1    -0.591247898211E+02   -0.17314E-05   -0.12958E-04  4488   0.851E-02    0.396E-03
DAV:   2    -0.591247896726E+02    0.14851E-06   -0.30552E-06  5440   0.128E-02    0.235E-03
DAV:   3    -0.591247895626E+02    0.11000E-06   -0.78950E-07  5884   0.560E-03    0.906E-04
DAV:   4    -0.591247895456E+02    0.16973E-07   -0.10962E-07  5592   0.216E-03    0.546E-04
DAV:   5    -0.591247895431E+02    0.25050E-08   -0.99254E-09  2452   0.771E-04
  77 F= -.59124790E+02 E0= -.59118065E+02  d E =-.145133E-05
 trial-energy change:   -0.000001  1 .order   -0.000001   -0.000004    0.000001
 step:   0.2154(harm=  0.2118)  dis= 0.00012  next Energy=   -59.124790 (dE=-0.151E-05)
 bond charge predicted
       N       E                     dE             d eps       ncg     rms          rms(c)
DAV:   1    -0.591247896200E+02   -0.74383E-07   -0.34913E-06  4512   0.139E-02    0.658E-04
DAV:   2    -0.591247896021E+02    0.17889E-07   -0.85680E-08  5288   0.215E-03    0.381E-04
DAV:   3    -0.591247895980E+02    0.40895E-08   -0.21120E-08  2548   0.962E-04
  78 F= -.59124790E+02 E0= -.59118065E+02  d E =-.150624E-05
 curvature:  -0.11 expect dE=-0.384E-06 dE for cont linesearch -0.534E-09
 trial: gam= 0.28622 g(F)=  0.164E-05 g(S)=  0.200E-05 ort =-0.263E-06 (trialstep = 0.249E+00)
 search vector abs. value=  0.461E-05
 bond charge predicted
       N       E                     dE             d eps       ncg     rms          rms(c)
DAV:   1    -0.591247904642E+02   -0.86205E-06   -0.16750E-05  4536   0.315E-02    0.194E-03
DAV:   2    -0.591247903640E+02    0.10015E-06   -0.33700E-07  5292   0.404E-03    0.101E-03
DAV:   3    -0.591247902960E+02    0.68023E-07   -0.13185E-07  4932   0.204E-03    0.218E-04
DAV:   4    -0.591247902842E+02    0.11781E-07   -0.73964E-09  2500   0.613E-04    0.110E-04
DAV:   5    -0.591247902753E+02    0.89392E-08   -0.18866E-09  2436   0.305E-04
  79 F= -.59124790E+02 E0= -.59118066E+02  d E =-.677243E-06
 trial-energy change:   -0.000001  1 .order   -0.000001   -0.000001   -0.000001
 step:   0.6734(harm=  0.6734)  dis= 0.00012  next Energy=   -59.124791 (dE=-0.120E-05)
 bond charge predicted
       N       E                     dE             d eps       ncg     rms          rms(c)
DAV:   1    -0.591247911301E+02   -0.84586E-06   -0.48687E-05  4520   0.536E-02    0.329E-03
DAV:   2    -0.591247908535E+02    0.27656E-06   -0.97590E-07  5328   0.688E-03    0.171E-03
DAV:   3    -0.591247906990E+02    0.15450E-06   -0.39015E-07  4956   0.351E-03    0.388E-04
DAV:   4    -0.591247906779E+02    0.21123E-07   -0.22378E-08  3544   0.106E-03    0.196E-04
DAV:   5    -0.591247906625E+02    0.15374E-07   -0.51865E-09  2468   0.507E-04    0.652E-05
DAV:   6    -0.591247906599E+02    0.26519E-08   -0.76870E-10  2440   0.222E-04
  80 F= -.59124791E+02 E0= -.59118067E+02  d E =-.106184E-05
 curvature:  -0.44 expect dE=-0.188E-05 dE for cont linesearch -0.689E-11
 trial: gam= 1.14873 g(F)=  0.288E-05 g(S)=  0.144E-05 ort =-0.855E-08 (trialstep = 0.148E+00)
 search vector abs. value=  0.104E-04
 bond charge predicted
       N       E                     dE             d eps       ncg     rms          rms(c)
DAV:   1    -0.591247914514E+02   -0.78888E-06   -0.14858E-05  4496   0.283E-02    0.187E-03
DAV:   2    -0.591247913512E+02    0.10015E-06   -0.30674E-07  5340   0.385E-03    0.981E-04
DAV:   3    -0.591247913013E+02    0.49923E-07   -0.21407E-07  4860   0.257E-03    0.275E-04
DAV:   4    -0.591247912932E+02    0.80970E-08   -0.11002E-08  2668   0.777E-04
  81 F= -.59124791E+02 E0= -.59118068E+02  d E =-.633353E-06
 ZBRENT: can't locate minimum, use default step
 trial-energy change:   -0.000001  1 .order   -0.000001   -0.000001   -0.000001
 step:   0.5932(harm=  1.7703)  dis= 0.00012  next Energy=   -59.124794 (dE=-0.381E-05)
 bond charge predicted
       N       E                     dE             d eps       ncg     rms          rms(c)
DAV:   1    -0.591247943806E+02   -0.30792E-05   -0.13427E-04  4480   0.848E-02    0.566E-03
DAV:   2    -0.591247933357E+02    0.10448E-05   -0.28056E-06  5284   0.117E-02    0.297E-03
DAV:   3    -0.591247929188E+02    0.41693E-06   -0.19719E-06  4920   0.779E-03    0.842E-04
DAV:   4    -0.591247928871E+02    0.31637E-07   -0.11401E-07  5216   0.238E-03    0.495E-04
DAV:   5    -0.591247928708E+02    0.16322E-07   -0.22238E-08  3532   0.967E-04    0.163E-04
DAV:   6    -0.591247928657E+02    0.51291E-08   -0.24056E-09  2432   0.378E-04
  82 F= -.59124793E+02 E0= -.59118070E+02  d E =-.220583E-05
 curvature:  -1.01 expect dE=-0.391E-05 dE for cont linesearch -0.846E-06
 ZBRENT: increasing intervall
 opt :   1.4831  next Energy=   -59.124795 (dE=-0.394E-05)
 bond charge predicted
       N       E                     dE             d eps       ncg     rms          rms(c)
DAV:   1    -0.591248006342E+02   -0.77634E-05   -0.53551E-04  4480   0.170E-01    0.113E-02
DAV:   2    -0.591247963717E+02    0.42625E-05   -0.11089E-05  5280   0.232E-02    0.591E-03
DAV:   3    -0.591247947568E+02    0.16150E-05   -0.77826E-06  4884   0.154E-02    0.166E-03
DAV:   4    -0.591247946749E+02    0.81901E-07   -0.44333E-07  5232   0.469E-03    0.968E-04
DAV:   5    -0.591247946386E+02    0.36207E-07   -0.94363E-08  5840   0.191E-03    0.334E-04
DAV:   6    -0.591247946294E+02    0.92637E-08   -0.63645E-09  2748   0.618E-04
  83 F= -.59124795E+02 E0= -.59118072E+02  d E =-.396951E-05
 curvature:  -2.08 expect dE=-0.254E-04 dE for cont linesearch -0.166E-06
 trial: gam= 2.66621 g(F)=  0.105E-04 g(S)=  0.169E-05 ort = 0.910E-06 (trialstep = 0.474E-01)
 search vector abs. value=  0.909E-04
 bond charge predicted
       N       E                     dE             d eps       ncg     rms          rms(c)
DAV:   1    -0.591247954425E+02   -0.80384E-06   -0.13946E-05  4496   0.272E-02    0.180E-03
DAV:   2    -0.591247953591E+02    0.83394E-07   -0.30040E-07  5360   0.384E-03    0.956E-04
DAV:   3    -0.591247953172E+02    0.41936E-07   -0.19447E-07  4936   0.250E-03    0.255E-04
DAV:   4    -0.591247953103E+02    0.68435E-08   -0.10026E-08  2612   0.769E-04
  84 F= -.59124795E+02 E0= -.59118073E+02  d E =-.680928E-06
 ZBRENT: can't locate minimum, use default step
 trial-energy change:   -0.000001  1 .order   -0.000001   -0.000001   -0.000001
 step:   0.1897(harm=  0.4434)  dis= 0.00009  next Energy=   -59.124798 (dE=-0.325E-05)
 bond charge predicted
       N       E                     dE             d eps       ncg     rms          rms(c)
DAV:   1    -0.591247983167E+02   -0.29996E-05   -0.12638E-04  4480   0.817E-02    0.542E-03
DAV:   2    -0.591247974074E+02    0.90937E-06   -0.27169E-06  5368   0.116E-02    0.289E-03
DAV:   3    -0.591247970251E+02    0.38228E-06   -0.17726E-06  5004   0.751E-03    0.781E-04
DAV:   4    -0.591247969988E+02    0.26294E-07   -0.10053E-07  5108   0.231E-03    0.492E-04
DAV:   5    -0.591247969868E+02    0.12039E-07   -0.20010E-08  3196   0.954E-04    0.166E-04
DAV:   6    -0.591247969826E+02    0.41071E-08   -0.24748E-09  2452   0.390E-04
  85 F= -.59124797E+02 E0= -.59118075E+02  d E =-.235327E-05
 curvature:  -0.81 expect dE=-0.348E-05 dE for cont linesearch -0.772E-06
 ZBRENT: increasing intervall
 opt :   0.4743  next Energy=   -59.124799 (dE=-0.392E-05)
 bond charge predicted
       N       E                     dE             d eps       ncg     rms          rms(c)
DAV:   1    -0.591248040321E+02   -0.70454E-05   -0.50394E-04  4480   0.163E-01    0.108E-02
DAV:   2    -0.591248002764E+02    0.37557E-05   -0.10770E-05  5396   0.230E-02    0.576E-03
DAV:   3    -0.591247987548E+02    0.15216E-05   -0.69983E-06  5004   0.149E-02    0.154E-03
DAV:   4    -0.591247986882E+02    0.66654E-07   -0.39156E-07  5112   0.456E-03    0.961E-04
[...]
DAV:   5    -0.591248757992E+02    0.32633E-08   -0.18012E-07  5768   0.275E-03    0.540E-04
DAV:   6    -0.591248758027E+02   -0.34149E-08   -0.18350E-08  2992   0.106E-03
 157 F= -.59124876E+02 E0= -.59118168E+02  d E =-.378159E-05
 curvature: -12.68 expect dE=-0.189E-03 dE for cont linesearch -0.534E-09
 trial: gam= 0.94166 g(F)=  0.108E-04 g(S)=  0.416E-05 ort = 0.162E-06 (trialstep = 0.337E+00)
 search vector abs. value=  0.566E-03
 bond charge predicted
       N       E                     dE             d eps       ncg     rms          rms(c)
DAV:   1    -0.591248789305E+02   -0.31312E-05   -0.36718E-03  4480   0.496E-01    0.146E-02
DAV:   2    -0.591248806834E+02   -0.17529E-05   -0.54868E-05  5796   0.494E-02    0.888E-03
DAV:   3    -0.591248792036E+02    0.14798E-05   -0.44703E-06  5648   0.142E-02    0.301E-03
DAV:   4    -0.591248790923E+02    0.11125E-06   -0.61967E-07  5744   0.543E-03    0.123E-03
DAV:   5    -0.591248790907E+02    0.16444E-08   -0.10315E-07  5312   0.214E-03    0.503E-04
DAV:   6    -0.591248790968E+02   -0.60859E-08   -0.12576E-08  2972   0.886E-04
 158 F= -.59124879E+02 E0= -.59118169E+02  d E =-.329412E-05
 trial-energy change:   -0.000003  1 .order   -0.000003   -0.000005   -0.000002
 step:   0.5286(harm=  0.5286)  dis= 0.00103  next Energy=   -59.124880 (dE=-0.399E-05)
 bond charge predicted
       N       E                     dE             d eps       ncg     rms          rms(c)
DAV:   1    -0.591248794880E+02   -0.39730E-06   -0.11905E-03  4480   0.282E-01    0.832E-03
DAV:   2    -0.591248800341E+02   -0.54613E-06   -0.17800E-05  5804   0.281E-02    0.505E-03
DAV:   3    -0.591248795517E+02    0.48246E-06   -0.14555E-06  5652   0.812E-03    0.171E-03
DAV:   4    -0.591248795194E+02    0.32292E-07   -0.20136E-07  5752   0.309E-03    0.700E-04
DAV:   5    -0.591248795210E+02   -0.16255E-08   -0.31255E-08  4348   0.122E-03
 159 F= -.59124880E+02 E0= -.59118168E+02  d E =-.371834E-05
 curvature:  -9.92 expect dE=-0.948E-04 dE for cont linesearch -0.132E-08
 trial: gam= 0.66765 g(F)=  0.476E-05 g(S)=  0.480E-05 ort =-0.274E-06 (trialstep = 0.375E+00)
 search vector abs. value=  0.262E-03
 bond charge predicted
       N       E                     dE             d eps       ncg     rms          rms(c)
DAV:   1    -0.591248813522E+02   -0.18328E-05   -0.23246E-03  4480   0.394E-01    0.104E-02
DAV:   2    -0.591248822269E+02   -0.87476E-06   -0.31972E-05  5736   0.373E-02    0.664E-03
DAV:   3    -0.591248813648E+02    0.86214E-06   -0.25974E-06  5688   0.104E-02    0.231E-03
DAV:   4    -0.591248813199E+02    0.44863E-07   -0.29632E-07  5644   0.370E-03    0.956E-04
DAV:   5    -0.591248813188E+02    0.11469E-08   -0.46747E-08  5200   0.150E-03
 160 F= -.59124881E+02 E0= -.59118166E+02  d E =-.179777E-05
 trial-energy change:   -0.000002  1 .order   -0.000002   -0.000004   -0.000001
 step:   0.4556(harm=  0.4556)  dis= 0.00058  next Energy=   -59.124882 (dE=-0.214E-05)
 bond charge predicted
       N       E                     dE             d eps       ncg     rms          rms(c)
DAV:   1    -0.591248813674E+02   -0.47475E-07   -0.10665E-04  4480   0.845E-02    0.225E-03
DAV:   2    -0.591248813741E+02   -0.67012E-08   -0.14611E-06  5824   0.797E-03    0.144E-03
DAV:   3    -0.591248813219E+02    0.52170E-07   -0.12597E-07  5656   0.226E-03    0.487E-04
DAV:   4    -0.591248813201E+02    0.18092E-08   -0.11801E-08  3060   0.795E-04
 161 F= -.59124881E+02 E0= -.59118165E+02  d E =-.179911E-05
 curvature:  -6.36 expect dE=-0.423E-04 dE for cont linesearch -0.133E-09
 trial: gam= 0.68405 g(F)=  0.427E-05 g(S)=  0.239E-05 ort =-0.741E-07 (trialstep = 0.391E+00)
 search vector abs. value=  0.129E-03
 bond charge predicted
       N       E                     dE             d eps       ncg     rms          rms(c)
DAV:   1    -0.591248836337E+02   -0.23118E-05   -0.11918E-03  4480   0.286E-01    0.811E-03
DAV:   2    -0.591248837952E+02   -0.16147E-06   -0.15450E-05  5472   0.256E-02    0.499E-03
DAV:   3    -0.591248833388E+02    0.45635E-06   -0.15710E-06  5564   0.775E-03    0.160E-03
DAV:   4    -0.591248833402E+02   -0.14170E-08   -0.15284E-07  5640   0.270E-03    0.691E-04
DAV:   5    -0.591248833526E+02   -0.12326E-07   -0.25645E-08  3716   0.115E-03    0.272E-04
DAV:   6    -0.591248833589E+02   -0.63008E-08   -0.47231E-09  2544   0.544E-04
 162 F= -.59124883E+02 E0= -.59118167E+02  d E =-.203875E-05
 trial-energy change:   -0.000002  1 .order   -0.000002   -0.000003   -0.000002
 step:   1.0216(harm=  1.0216)  dis= 0.00092  next Energy=   -59.124885 (dE=-0.337E-05)
 bond charge predicted
       N       E                     dE             d eps       ncg     rms          rms(c)
DAV:   1    -0.591248852967E+02   -0.19441E-05   -0.30936E-03  4480   0.460E-01    0.131E-02
DAV:   2    -0.591248857295E+02   -0.43279E-06   -0.40066E-05  5464   0.412E-02    0.802E-03
DAV:   3    -0.591248845175E+02    0.12120E-05   -0.40541E-06  5560   0.125E-02    0.257E-03
DAV:   4    -0.591248844978E+02    0.19666E-07   -0.39541E-07  5648   0.433E-03    0.111E-03
DAV:   5    -0.591248845171E+02   -0.19222E-07   -0.72649E-08  5384   0.183E-03    0.458E-04
DAV:   6    -0.591248845254E+02   -0.83444E-08   -0.97547E-09  2724   0.749E-04
 163 F= -.59124885E+02 E0= -.59118168E+02  d E =-.320528E-05
 curvature:  -9.98 expect dE=-0.214E-03 dE for cont linesearch -0.222E-09
 trial: gam= 3.23708 g(F)=  0.165E-04 g(S)=  0.493E-05 ort =-0.535E-07 (trialstep = 0.486E-01)
 search vector abs. value=  0.137E-02
 bond charge predicted
       N       E                     dE             d eps       ncg     rms          rms(c)
DAV:   1    -0.591248856104E+02   -0.10933E-05   -0.19734E-04  4484   0.116E-01    0.348E-03
DAV:   2    -0.591248855534E+02    0.56985E-07   -0.26656E-06  5512   0.108E-02    0.207E-03
DAV:   3    -0.591248854723E+02    0.81086E-07   -0.38997E-07  5292   0.381E-03    0.653E-04
DAV:   4    -0.591248854809E+02   -0.86211E-08   -0.30021E-08  4472   0.126E-03
 164 F= -.59124885E+02 E0= -.59118169E+02  d E =-.955535E-06
 ZBRENT: can't locate minimum, use default step
 trial-energy change:   -0.000001  1 .order   -0.000001   -0.000001   -0.000001
 step:   0.1944(harm=  0.6490)  dis= 0.00056  next Energy=   -59.124891 (dE=-0.691E-05)
 bond charge predicted
       N       E                     dE             d eps       ncg     rms          rms(c)
DAV:   1    -0.591248899830E+02   -0.45106E-05   -0.17775E-03  4480   0.347E-01    0.105E-02
DAV:   2    -0.591248896970E+02    0.28600E-06   -0.24032E-05  5472   0.326E-02    0.629E-03
DAV:   3    -0.591248888928E+02    0.80419E-06   -0.35646E-06  5284   0.115E-02    0.198E-03
DAV:   4    -0.591248888963E+02   -0.34865E-08   -0.28862E-07  5312   0.386E-03    0.104E-03
DAV:   5    -0.591248889140E+02   -0.17741E-07   -0.70584E-08  5488   0.169E-03    0.372E-04
DAV:   6    -0.591248889184E+02   -0.43794E-08   -0.76736E-09  2676   0.651E-04
 165 F= -.59124889E+02 E0= -.59118172E+02  d E =-.439298E-05
 curvature:  -8.93 expect dE=-0.113E-03 dE for cont linesearch -0.145E-05
 ZBRENT: increasing intervall
 opt :   0.4861  next Energy=   -59.124892 (dE=-0.737E-05)
 bond charge predicted
       N       E                     dE             d eps       ncg     rms          rms(c)
DAV:   1    -0.591248959671E+02   -0.70531E-05   -0.71099E-03  4480   0.694E-01    0.209E-02
DAV:   2    -0.591248950069E+02    0.96022E-06   -0.95981E-05  5452   0.651E-02    0.125E-02
DAV:   3    -0.591248917124E+02    0.32945E-05   -0.14004E-05  5300   0.229E-02    0.394E-03
DAV:   4    -0.591248916563E+02    0.56028E-07   -0.11262E-06  5316   0.762E-03    0.205E-03
DAV:   5    -0.591248916880E+02   -0.31659E-07   -0.27192E-07  5584   0.333E-03    0.737E-04
DAV:   6    -0.591248916952E+02   -0.72034E-08   -0.30816E-08  3744   0.128E-03
 166 F= -.59124892E+02 E0= -.59118175E+02  d E =-.716981E-05
 curvature: -18.28 expect dE=-0.215E-03 dE for cont linesearch -0.438E-06
 ZBRENT: increasing intervall
 opt :   1.0694  next Energy=   -59.124890 (dE=-0.513E-05)
 bond charge predicted
       N       E                     dE             d eps       ncg     rms          rms(c)
DAV:   1    -0.591249048643E+02   -0.13176E-04   -0.28447E-02  4480   0.139E+00    0.419E-02
DAV:   2    -0.591249013185E+02    0.35458E-05   -0.38430E-04  5448   0.130E-01    0.250E-02
DAV:   3    -0.591248880061E+02    0.13312E-04   -0.55830E-05  5316   0.457E-02    0.789E-03
DAV:   4    -0.591248876369E+02    0.36918E-06   -0.45003E-06  5324   0.152E-02    0.410E-03
DAV:   5    -0.591248876876E+02   -0.50661E-07   -0.10781E-06  5596   0.662E-03    0.148E-03
DAV:   6    -0.591248876968E+02   -0.91870E-08   -0.13413E-07  5244   0.255E-03    0.593E-04
DAV:   7    -0.591248877146E+02   -0.17821E-07   -0.17032E-08  3108   0.102E-03    0.139E-04
DAV:   8    -0.591248877151E+02   -0.54001E-09   -0.43369E-09  2656   0.464E-04
 167 F= -.59124888E+02 E0= -.59118170E+02  d E =-.318974E-05
 curvature:  85.12 expect dE= 0.464E-02 dE for cont linesearch  0.111E-04
 ZBRENT: bracketing found
 ZBRENT: interpolating
 opt :   0.6611  next Energy=   -59.124892 (dE=-0.767E-05)
 bond charge predicted
       N       E                     dE             d eps       ncg     rms          rms(c)
DAV:   1    -0.591249003844E+02   -0.12670E-04   -0.13937E-02  4480   0.972E-01    0.293E-02
DAV:   2    -0.591248992489E+02    0.11355E-05   -0.18787E-04  5428   0.913E-02    0.176E-02
DAV:   3    -0.591248925093E+02    0.67396E-05   -0.27914E-05  5276   0.323E-02    0.549E-03
DAV:   4    -0.591248921610E+02    0.34837E-06   -0.22341E-06  5300   0.107E-02    0.288E-03
DAV:   5    -0.591248920948E+02    0.66159E-07   -0.54345E-07  5584   0.469E-03    0.103E-03
DAV:   6    -0.591248920744E+02    0.20419E-07   -0.66962E-08  5144   0.180E-03    0.420E-04
DAV:   7    -0.591248920657E+02    0.86627E-08   -0.84224E-09  2728   0.715E-04
 168 F= -.59124892E+02 E0= -.59118175E+02  d E =-.754033E-05
 curvature:  -3.85 expect dE=-0.709E-04 dE for cont linesearch -0.261E-09
 trial: gam= 0.82067 g(F)=  0.124E-04 g(S)=  0.597E-05 ort =-0.305E-06 (trialstep = 0.171E+00)
 search vector abs. value=  0.943E-03
 bond charge predicted
       N       E                     dE             d eps       ncg     rms          rms(c)
DAV:   1    -0.591248957012E+02   -0.36268E-05   -0.16395E-03  4480   0.334E-01    0.104E-02
DAV:   2    -0.591248954605E+02    0.24064E-06   -0.22494E-05  5420   0.319E-02    0.606E-03
DAV:   3    -0.591248947497E+02    0.71083E-06   -0.32603E-06  5328   0.112E-02    0.185E-03
DAV:   4    -0.591248947527E+02   -0.30136E-08   -0.28447E-07  5204   0.382E-03    0.977E-04
DAV:   5    -0.591248947726E+02   -0.19856E-07   -0.57202E-08  5348   0.154E-03    0.353E-04
DAV:   6    -0.591248947778E+02   -0.52112E-08   -0.65693E-09  2572   0.603E-04
 169 F= -.59124895E+02 E0= -.59118177E+02  d E =-.271207E-05
 ZBRENT: can't locate minimum, use default step
 trial-energy change:   -0.000003  1 .order   -0.000003   -0.000003   -0.000002
 step:   0.6844(harm=  0.7298)  dis= 0.00165  next Energy=   -59.124899 (dE=-0.662E-05)
 bond charge predicted
       N       E                     dE             d eps       ncg     rms          rms(c)
DAV:   1    -0.591249056964E+02   -0.10924E-04   -0.14756E-02  4480   0.100E+00    0.312E-02
DAV:   2    -0.591249039094E+02    0.17870E-05   -0.20264E-04  5412   0.955E-02    0.181E-02
DAV:   3    -0.591248971828E+02    0.67266E-05   -0.29045E-05  5344   0.335E-02    0.555E-03
DAV:   4    -0.591248969936E+02    0.18919E-06   -0.25244E-06  5184   0.114E-02    0.292E-03
DAV:   5    -0.591248970463E+02   -0.52706E-07   -0.51255E-07  5600   0.460E-03    0.106E-03
DAV:   6    -0.591248970590E+02   -0.12734E-07   -0.69924E-08  5196   0.182E-03    0.420E-04
DAV:   7    -0.591248970722E+02   -0.13174E-07   -0.85447E-09  2724   0.713E-04    0.966E-05
DAV:   8    -0.591248970719E+02    0.31491E-09   -0.16285E-09  2512   0.298E-04
 170 F= -.59124897E+02 E0= -.59118180E+02  d E =-.500617E-05
 curvature: -18.82 expect dE=-0.234E-03 dE for cont linesearch -0.774E-08
 trial: gam= 0.64036 g(F)=  0.996E-05 g(S)=  0.250E-05 ort = 0.622E-06 (trialstep = 0.274E+00)
 search vector abs. value=  0.400E-03
 bond charge predicted
       N       E                     dE             d eps       ncg     rms          rms(c)
DAV:   1    -0.591249008524E+02   -0.37802E-05   -0.18443E-03  4480   0.354E-01    0.103E-02
DAV:   2    -0.591249005372E+02    0.31526E-06   -0.25220E-05  5456   0.335E-02    0.615E-03
DAV:   3    -0.591248996991E+02    0.83804E-06   -0.36064E-06  5444   0.116E-02    0.188E-03
DAV:   4    -0.591248996944E+02    0.47257E-08   -0.27891E-07  5292   0.378E-03    0.100E-03
DAV:   5    -0.591248997057E+02   -0.11322E-07   -0.63508E-08  5468   0.162E-03    0.359E-04
DAV:   6    -0.591248997090E+02   -0.33185E-08   -0.72440E-09  2648   0.630E-04
 171 F= -.59124900E+02 E0= -.59118182E+02  d E =-.263714E-05
 trial-energy change:   -0.000003  1 .order   -0.000003   -0.000004   -0.000002
 step:   0.6618(harm=  0.6618)  dis= 0.00102  next Energy=   -59.124901 (dE=-0.425E-05)
 bond charge predicted
       N       E                     dE             d eps       ncg     rms          rms(c)
DAV:   1    -0.591249031752E+02   -0.34695E-05   -0.37039E-03  4480   0.502E-01    0.146E-02
DAV:   2    -0.591249026118E+02    0.56335E-06   -0.50642E-05  5432   0.474E-02    0.871E-03
DAV:   3    -0.591249009302E+02    0.16817E-05   -0.72307E-06  5456   0.165E-02    0.267E-03
DAV:   4    -0.591249009048E+02    0.25345E-07   -0.55868E-07  5300   0.534E-03    0.142E-03
DAV:   5    -0.591249009205E+02   -0.15665E-07   -0.12679E-07  5668   0.229E-03    0.510E-04
DAV:   6    -0.591249009246E+02   -0.41396E-08   -0.14686E-08  2960   0.891E-04
 172 F= -.59124901E+02 E0= -.59118183E+02  d E =-.385274E-05
 curvature: -10.29 expect dE=-0.835E-04 dE for cont linesearch -0.878E-10
 trial: gam= 0.72522 g(F)=  0.605E-05 g(S)=  0.206E-05 ort =-0.584E-07 (trialstep = 0.351E+00)
 search vector abs. value=  0.218E-03
 bond charge predicted
       N       E                     dE             d eps       ncg     rms          rms(c)
DAV:   1    -0.591249036317E+02   -0.27112E-05   -0.14873E-03  4480   0.320E-01    0.105E-02
DAV:   2    -0.591249032177E+02    0.41399E-06   -0.22082E-05  5796   0.309E-02    0.620E-03
DAV:   3    -0.591249023647E+02    0.85297E-06   -0.30186E-06  5336   0.107E-02    0.168E-03
DAV:   4    -0.591249023628E+02    0.19561E-08   -0.23521E-07  5632   0.348E-03    0.812E-04
DAV:   5    -0.591249023749E+02   -0.12133E-07   -0.39600E-08  4884   0.136E-03    0.323E-04
DAV:   6    -0.591249023814E+02   -0.64761E-08   -0.49975E-09  2672   0.552E-04
 173 F= -.59124902E+02 E0= -.59118185E+02  d E =-.145674E-05
 trial-energy change:   -0.000001  1 .order   -0.000002   -0.000003   -0.000000
 step:   0.3885(harm=  0.3816)  dis= 0.00042  next Energy=   -59.124902 (dE=-0.147E-05)
 bond charge predicted
       N       E                     dE             d eps       ncg     rms          rms(c)
DAV:   1    -0.591249023991E+02   -0.24195E-07   -0.16586E-05  4512   0.338E-02    0.111E-03
DAV:   2    -0.591249023886E+02    0.10547E-07   -0.24717E-07  5868   0.326E-03    0.651E-04
DAV:   3    -0.591249023813E+02    0.72494E-08   -0.32940E-08  4328   0.113E-03
 174 F= -.59124902E+02 E0= -.59118185E+02  d E =-.145667E-05
 curvature:  -4.89 expect dE=-0.171E-04 dE for cont linesearch -0.597E-09
 trial: gam= 0.41596 g(F)=  0.328E-05 g(S)=  0.207E-06 ort =-0.163E-06 (trialstep = 0.359E+00)
 search vector abs. value=  0.411E-04
 bond charge predicted
       N       E                     dE             d eps       ncg     rms          rms(c)
DAV:   1    -0.591249033029E+02   -0.91439E-06   -0.29918E-04  4480   0.143E-01    0.517E-03
DAV:   2    -0.591249030868E+02    0.21614E-06   -0.51389E-06  5848   0.156E-02    0.314E-03
DAV:   3    -0.591249028703E+02    0.21647E-06   -0.88680E-07  5432   0.580E-03    0.936E-04
DAV:   4    -0.591249028767E+02   -0.63862E-08   -0.77166E-08  5232   0.192E-03
 175 F= -.59124903E+02 E0= -.59118184E+02  d E =-.495417E-06
 trial-energy change:   -0.000000  1 .order   -0.000001   -0.000001    0.000000
 step:   0.3371(harm=  0.3463)  dis= 0.00018  next Energy=   -59.124903 (dE=-0.497E-06)
 bond charge predicted
       N       E                     dE             d eps       ncg     rms          rms(c)
DAV:   1    -0.591249028861E+02   -0.15720E-07   -0.11346E-06  4584   0.873E-03    0.327E-04
DAV:   2    -0.591249028900E+02   -0.39663E-08   -0.18628E-08  3396   0.987E-04
 176 F= -.59124903E+02 E0= -.59118184E+02  d E =-.508717E-06
 curvature:  -0.93 expect dE=-0.176E-05 dE for cont linesearch -0.565E-09
 trial: gam= 0.53725 g(F)=  0.146E-05 g(S)=  0.431E-06 ort =-0.158E-06 (trialstep = 0.354E+00)
 search vector abs. value=  0.136E-04
 bond charge predicted
       N       E                     dE             d eps       ncg     rms          rms(c)
DAV:   1    -0.591249033590E+02   -0.47292E-06   -0.10250E-04  4484   0.848E-02    0.201E-03
DAV:   2    -0.591249034465E+02   -0.87511E-07   -0.12313E-06  5928   0.731E-03    0.133E-03
DAV:   3    -0.591249034507E+02   -0.42332E-08   -0.63206E-08  5520   0.171E-03
 177 F= -.59124903E+02 E0= -.59118184E+02  d E =-.560694E-06
 trial-energy change:   -0.000001  1 .order   -0.000001   -0.000001   -0.000000
 step:   1.1912(harm=  1.1912)  dis= 0.00035  next Energy=   -59.124904 (dE=-0.108E-05)
 bond charge predicted
       N       E                     dE             d eps       ncg     rms          rms(c)
DAV:   1    -0.591249035410E+02   -0.94497E-07   -0.57165E-04  4480   0.200E-01    0.489E-03
DAV:   2    -0.591249040111E+02   -0.47011E-06   -0.69294E-06  5932   0.173E-02    0.324E-03
DAV:   3    -0.591249039724E+02    0.38688E-07   -0.36019E-07  6068   0.410E-03    0.123E-03
DAV:   4    -0.591249039892E+02   -0.16796E-07   -0.47963E-08  5308   0.152E-03    0.389E-04
DAV:   5    -0.591249039990E+02   -0.98401E-08   -0.61562E-09  2700   0.593E-04
 178 F= -.59124904E+02 E0= -.59118183E+02  d E =-.110901E-05
 curvature:  -4.47 expect dE=-0.140E-04 dE for cont linesearch -0.866E-08
 trial: gam= 1.68134 g(F)=  0.191E-05 g(S)=  0.122E-05 ort =-0.162E-06 (trialstep = 0.173E+00)
 search vector abs. value=  0.410E-04
 bond charge predicted
       N       E                     dE             d eps       ncg     rms          rms(c)
DAV:   1    -0.591249040135E+02   -0.24323E-07   -0.77246E-05  4480   0.739E-02    0.163E-03
DAV:   2    -0.591249040814E+02   -0.67886E-07   -0.97253E-07  5824   0.650E-03    0.114E-03
DAV:   3    -0.591249040691E+02    0.12335E-07   -0.35073E-08  5056   0.144E-03    0.557E-04
DAV:   4    -0.591249040652E+02    0.38794E-08   -0.88790E-09  2720   0.694E-04
 179 F= -.59124904E+02 E0= -.59118183E+02  d E =-.661553E-07
 trial-energy change:   -0.000000  1 .order   -0.000000   -0.000000   -0.000000
 step:   0.5319(harm=  0.5319)  dis= 0.00032  next Energy=   -59.124905 (dE=-0.761E-06)
 bond charge predicted
       N       E                     dE             d eps       ncg     rms          rms(c)
DAV:   1    -0.591249037782E+02    0.29082E-06   -0.33309E-04  4480   0.153E-01    0.337E-03
DAV:   2    -0.591249040966E+02   -0.31835E-06   -0.42222E-06  5788   0.135E-02    0.234E-03
DAV:   3    -0.591249040507E+02    0.45869E-07   -0.15136E-07  5792   0.295E-03    0.117E-03
DAV:   4    -0.591249040370E+02    0.13766E-07   -0.36762E-08  4308   0.134E-03    0.281E-04
DAV:   5    -0.591249040348E+02    0.22083E-08   -0.39666E-09  2536   0.514E-04
 180 F= -.59124904E+02 E0= -.59118182E+02  d E =-.357181E-07
 curvature:  -3.81 expect dE=-0.138E-04 dE for cont linesearch -0.197E-09
 trial: gam= 1.06138 g(F)=  0.252E-05 g(S)=  0.109E-05 ort =-0.460E-07 (trialstep = 0.202E+00)
 search vector abs. value=  0.497E-04
 reached required accuracy - stopping structural energy minimisation
 writing wavefunctions
Sun Mar  6 01:50:10 CST 2022
